<?xml version="1.0" encoding="UTF-8"?>

<!-- generated on 2024-08-01 09:41:41 by Eclipse SUMO sumo Version 1.17.0
<configuration xmlns:xsi="http://www.w3.org/2001/XMLSchema-instance" xsi:noNamespaceSchemaLocation="http://sumo.dlr.de/xsd/sumoConfiguration.xsd">

    <input>
        <net-file value="single_actuated.net.xml"/>
        <route-files value="single_5.rou.xml"/>
    </input>

    <output>
        <summary-output value="control_summaries\summary_single_actuated_5.xml"/>
        <tripinfo-output value="control_summaries\tripinfos_single_actuated_5.xml"/>
    </output>

    <processing>
        <time-to-teleport value="-1"/>
    </processing>

    <traci_server>
        <remote-port value="64980"/>
    </traci_server>

</configuration>
-->

<tripinfos xmlns:xsi="http://www.w3.org/2001/XMLSchema-instance" xsi:noNamespaceSchemaLocation="http://sumo.dlr.de/xsd/tripinfo_file.xsd">
    <tripinfo id="f_0_0.0" depart="2.00" departLane="A2B2_0" departPos="5.10" departSpeed="0.00" departDelay="0.00" arrival="111.00" arrivalLane="C2D2_0" arrivalPos="492.80" arrivalSpeed="14.60" duration="109.00" routeLength="1495.00" waitingTime="0.00" waitingCount="0" stopTime="0.00" timeLoss="6.86" rerouteNo="0" devices="tripinfo_f_0_0.0" vType="DEFAULT_VEHTYPE" speedFactor="1.06" vaporized=""/>
    <tripinfo id="f_0_0.1" depart="5.00" departLane="A2B2_0" departPos="5.10" departSpeed="0.00" departDelay="0.00" arrival="130.00" arrivalLane="C2D2_0" arrivalPos="492.80" arrivalSpeed="12.19" duration="125.00" routeLength="1495.00" waitingTime="0.00" waitingCount="0" stopTime="0.00" timeLoss="9.97" rerouteNo="0" devices="tripinfo_f_0_0.1" vType="DEFAULT_VEHTYPE" speedFactor="0.94" vaporized=""/>
    <tripinfo id="f_0_0.2" depart="10.00" departLane="A2B2_0" departPos="5.10" departSpeed="0.00" departDelay="0.00" arrival="132.00" arrivalLane="C2D2_0" arrivalPos="492.80" arrivalSpeed="13.15" duration="122.00" routeLength="1495.00" waitingTime="0.00" waitingCount="0" stopTime="0.00" timeLoss="14.82" rerouteNo="0" devices="tripinfo_f_0_0.2" vType="DEFAULT_VEHTYPE" speedFactor="1.01" vaporized=""/>
    <tripinfo id="f_0_0.3" depart="16.00" departLane="A2B2_0" departPos="5.10" departSpeed="0.00" departDelay="0.00" arrival="133.00" arrivalLane="C2D2_0" arrivalPos="492.80" arrivalSpeed="14.34" duration="117.00" routeLength="1495.00" waitingTime="0.00" waitingCount="0" stopTime="0.00" timeLoss="17.51" rerouteNo="0" devices="tripinfo_f_0_0.3" vType="DEFAULT_VEHTYPE" speedFactor="1.08" vaporized=""/>
    <tripinfo id="f_0_0.4" depart="20.00" departLane="A2B2_0" departPos="5.10" departSpeed="0.00" departDelay="0.00" arrival="135.00" arrivalLane="C2D2_0" arrivalPos="492.80" arrivalSpeed="13.31" duration="115.00" routeLength="1495.00" waitingTime="0.00" waitingCount="0" stopTime="0.00" timeLoss="10.21" rerouteNo="0" devices="tripinfo_f_0_0.4" vType="DEFAULT_VEHTYPE" speedFactor="1.03" vaporized=""/>
    <tripinfo id="f_0_1.0" depart="40.00" departLane="C4C3_0" departPos="5.10" departSpeed="0.00" departDelay="0.00" arrival="180.00" arrivalLane="C2C1_0" arrivalPos="492.80" arrivalSpeed="10.80" duration="140.00" routeLength="1495.00" waitingTime="0.00" waitingCount="0" stopTime="0.00" timeLoss="10.46" rerouteNo="0" devices="tripinfo_f_0_1.0" vType="DEFAULT_VEHTYPE" speedFactor="0.83" vaporized=""/>
    <tripinfo id="f_0_1.1" depart="43.00" departLane="C4C3_0" departPos="5.10" departSpeed="0.00" departDelay="0.00" arrival="182.00" arrivalLane="C2C1_0" arrivalPos="492.80" arrivalSpeed="13.89" duration="139.00" routeLength="1495.00" waitingTime="0.00" waitingCount="0" stopTime="0.00" timeLoss="35.57" rerouteNo="0" devices="tripinfo_f_0_1.1" vType="DEFAULT_VEHTYPE" speedFactor="1.05" vaporized=""/>
    <tripinfo id="f_0_1.2" depart="46.00" departLane="C4C3_0" departPos="5.10" departSpeed="0.00" departDelay="1.00" arrival="184.00" arrivalLane="C2C1_0" arrivalPos="492.80" arrivalSpeed="12.05" duration="138.00" routeLength="1495.00" waitingTime="0.00" waitingCount="0" stopTime="0.00" timeLoss="15.96" rerouteNo="0" devices="tripinfo_f_0_1.2" vType="DEFAULT_VEHTYPE" speedFactor="0.89" vaporized=""/>
    <tripinfo id="f_0_2.0" depart="80.00" departLane="E2D2_0" departPos="5.10" departSpeed="0.00" departDelay="0.00" arrival="184.00" arrivalLane="C2B2_0" arrivalPos="492.80" arrivalSpeed="14.55" duration="104.00" routeLength="1495.00" waitingTime="0.00" waitingCount="0" stopTime="0.00" timeLoss="7.49" rerouteNo="0" devices="tripinfo_f_0_2.0" vType="DEFAULT_VEHTYPE" speedFactor="1.12" vaporized=""/>
    <tripinfo id="f_0_1.3" depart="49.00" departLane="C4C3_0" departPos="5.10" departSpeed="0.00" departDelay="1.00" arrival="186.00" arrivalLane="C2C1_0" arrivalPos="492.80" arrivalSpeed="12.24" duration="137.00" routeLength="1495.00" waitingTime="0.00" waitingCount="0" stopTime="0.00" timeLoss="21.41" rerouteNo="0" devices="tripinfo_f_0_1.3" vType="DEFAULT_VEHTYPE" speedFactor="0.94" vaporized=""/>
    <tripinfo id="f_0_1.4" depart="52.00" departLane="C4C3_0" departPos="5.10" departSpeed="0.00" departDelay="3.00" arrival="203.00" arrivalLane="C2C1_0" arrivalPos="492.80" arrivalSpeed="11.03" duration="151.00" routeLength="1495.00" waitingTime="10.00" waitingCount="1" stopTime="0.00" timeLoss="24.90" rerouteNo="0" devices="tripinfo_f_0_1.4" vType="DEFAULT_VEHTYPE" speedFactor="0.86" vaporized=""/>
    <tripinfo id="f_0_1.5" depart="55.00" departLane="C4C3_0" departPos="5.10" departSpeed="0.00" departDelay="1.00" arrival="205.00" arrivalLane="C2C1_0" arrivalPos="492.80" arrivalSpeed="13.90" duration="150.00" routeLength="1495.00" waitingTime="10.00" waitingCount="1" stopTime="0.00" timeLoss="50.45" rerouteNo="0" devices="tripinfo_f_0_1.5" vType="DEFAULT_VEHTYPE" speedFactor="1.09" vaporized=""/>
    <tripinfo id="f_0_1.6" depart="58.00" departLane="C4C3_0" departPos="5.10" departSpeed="0.00" departDelay="0.00" arrival="206.00" arrivalLane="C2C1_0" arrivalPos="492.80" arrivalSpeed="14.04" duration="148.00" routeLength="1495.00" waitingTime="12.00" waitingCount="2" stopTime="0.00" timeLoss="42.90" rerouteNo="0" devices="tripinfo_f_0_1.6" vType="DEFAULT_VEHTYPE" speedFactor="1.03" vaporized=""/>
    <tripinfo id="f_0_1.7" depart="68.00" departLane="C4C3_0" departPos="5.10" departSpeed="0.00" departDelay="0.00" arrival="208.00" arrivalLane="C2C1_0" arrivalPos="492.80" arrivalSpeed="14.26" duration="140.00" routeLength="1495.00" waitingTime="7.00" waitingCount="2" stopTime="0.00" timeLoss="36.73" rerouteNo="0" devices="tripinfo_f_0_1.7" vType="DEFAULT_VEHTYPE" speedFactor="1.05" vaporized=""/>
    <tripinfo id="f_0_2.1" depart="83.00" departLane="E2D2_0" departPos="5.10" departSpeed="0.00" departDelay="1.00" arrival="208.00" arrivalLane="C2B2_0" arrivalPos="492.80" arrivalSpeed="13.30" duration="125.00" routeLength="1495.00" waitingTime="3.00" waitingCount="1" stopTime="0.00" timeLoss="16.30" rerouteNo="0" devices="tripinfo_f_0_2.1" vType="DEFAULT_VEHTYPE" speedFactor="0.99" vaporized=""/>
    <tripinfo id="f_0_2.2" depart="86.00" departLane="E2D2_0" departPos="5.10" departSpeed="0.00" departDelay="3.00" arrival="216.00" arrivalLane="C2B2_0" arrivalPos="492.80" arrivalSpeed="12.33" duration="130.00" routeLength="1495.00" waitingTime="0.00" waitingCount="0" stopTime="0.00" timeLoss="13.47" rerouteNo="0" devices="tripinfo_f_0_2.2" vType="DEFAULT_VEHTYPE" speedFactor="0.93" vaporized=""/>
    <tripinfo id="f_0_2.3" depart="89.00" departLane="E2D2_0" departPos="5.10" departSpeed="0.00" departDelay="2.00" arrival="234.00" arrivalLane="C2B2_0" arrivalPos="492.80" arrivalSpeed="11.55" duration="145.00" routeLength="1495.00" waitingTime="6.00" waitingCount="1" stopTime="0.00" timeLoss="21.69" rerouteNo="0" devices="tripinfo_f_0_2.3" vType="DEFAULT_VEHTYPE" speedFactor="0.88" vaporized=""/>
    <tripinfo id="f_0_2.4" depart="92.00" departLane="E2D2_0" departPos="5.10" departSpeed="0.00" departDelay="4.00" arrival="235.00" arrivalLane="C2B2_0" arrivalPos="492.80" arrivalSpeed="12.78" duration="143.00" routeLength="1495.00" waitingTime="6.00" waitingCount="1" stopTime="0.00" timeLoss="28.58" rerouteNo="0" devices="tripinfo_f_0_2.4" vType="DEFAULT_VEHTYPE" speedFactor="0.94" vaporized=""/>
    <tripinfo id="f_0_2.5" depart="95.00" departLane="E2D2_0" departPos="5.10" departSpeed="0.00" departDelay="3.00" arrival="237.00" arrivalLane="C2B2_0" arrivalPos="492.80" arrivalSpeed="12.64" duration="142.00" routeLength="1495.00" waitingTime="4.00" waitingCount="1" stopTime="0.00" timeLoss="26.65" rerouteNo="0" devices="tripinfo_f_0_2.5" vType="DEFAULT_VEHTYPE" speedFactor="0.94" vaporized=""/>
    <tripinfo id="f_0_2.6" depart="98.00" departLane="E2D2_0" departPos="5.10" departSpeed="0.00" departDelay="4.00" arrival="239.00" arrivalLane="C2B2_0" arrivalPos="492.80" arrivalSpeed="15.89" duration="141.00" routeLength="1495.00" waitingTime="3.00" waitingCount="1" stopTime="0.00" timeLoss="47.30" rerouteNo="0" devices="tripinfo_f_0_2.6" vType="DEFAULT_VEHTYPE" speedFactor="1.16" vaporized=""/>
    <tripinfo id="f_0_2.7" depart="101.00" departLane="E2D2_0" departPos="5.10" departSpeed="0.00" departDelay="6.00" arrival="240.00" arrivalLane="C2B2_0" arrivalPos="492.80" arrivalSpeed="13.69" duration="139.00" routeLength="1495.00" waitingTime="3.00" waitingCount="1" stopTime="0.00" timeLoss="33.18" rerouteNo="0" devices="tripinfo_f_0_2.7" vType="DEFAULT_VEHTYPE" speedFactor="1.02" vaporized=""/>
    <tripinfo id="f_0_2.8" depart="104.00" departLane="E2D2_0" departPos="5.10" departSpeed="0.00" departDelay="8.00" arrival="242.00" arrivalLane="C2B2_0" arrivalPos="492.80" arrivalSpeed="13.78" duration="138.00" routeLength="1495.00" waitingTime="2.00" waitingCount="1" stopTime="0.00" timeLoss="31.09" rerouteNo="0" devices="tripinfo_f_0_2.8" vType="DEFAULT_VEHTYPE" speedFactor="1.01" vaporized=""/>
    <tripinfo id="f_0_2.9" depart="107.00" departLane="E2D2_0" departPos="5.10" departSpeed="0.00" departDelay="10.00" arrival="244.00" arrivalLane="C2B2_0" arrivalPos="492.80" arrivalSpeed="13.20" duration="137.00" routeLength="1495.00" waitingTime="2.00" waitingCount="1" stopTime="0.00" timeLoss="26.05" rerouteNo="0" devices="tripinfo_f_0_2.9" vType="DEFAULT_VEHTYPE" speedFactor="0.97" vaporized=""/>
    <tripinfo id="f_0_3.0" depart="122.00" departLane="C0C1_0" departPos="5.10" departSpeed="0.00" departDelay="0.00" arrival="252.00" arrivalLane="C2C3_0" arrivalPos="492.80" arrivalSpeed="11.30" duration="130.00" routeLength="1495.00" waitingTime="0.00" waitingCount="0" stopTime="0.00" timeLoss="8.85" rerouteNo="0" devices="tripinfo_f_0_3.0" vType="DEFAULT_VEHTYPE" speedFactor="0.89" vaporized=""/>
    <tripinfo id="f_0_3.1" depart="125.00" departLane="C0C1_0" departPos="5.10" departSpeed="0.00" departDelay="1.00" arrival="271.00" arrivalLane="C2C3_0" arrivalPos="492.80" arrivalSpeed="11.42" duration="146.00" routeLength="1495.00" waitingTime="0.00" waitingCount="0" stopTime="0.00" timeLoss="15.37" rerouteNo="0" devices="tripinfo_f_0_3.1" vType="DEFAULT_VEHTYPE" speedFactor="0.83" vaporized=""/>
    <tripinfo id="f_0_3.2" depart="139.00" departLane="C0C1_0" departPos="5.10" departSpeed="0.00" departDelay="0.00" arrival="273.00" arrivalLane="C2C3_0" arrivalPos="492.80" arrivalSpeed="11.37" duration="134.00" routeLength="1495.00" waitingTime="0.00" waitingCount="0" stopTime="0.00" timeLoss="10.26" rerouteNo="0" devices="tripinfo_f_0_3.2" vType="DEFAULT_VEHTYPE" speedFactor="0.87" vaporized=""/>
    <tripinfo id="f_0_3.3" depart="145.00" departLane="C0C1_0" departPos="5.10" departSpeed="0.00" departDelay="0.00" arrival="275.00" arrivalLane="C2C3_0" arrivalPos="492.80" arrivalSpeed="11.68" duration="130.00" routeLength="1495.00" waitingTime="0.00" waitingCount="0" stopTime="0.00" timeLoss="12.03" rerouteNo="0" devices="tripinfo_f_0_3.3" vType="DEFAULT_VEHTYPE" speedFactor="0.92" vaporized=""/>
    <tripinfo id="f_0_3.4" depart="148.00" departLane="C0C1_0" departPos="5.10" departSpeed="0.00" departDelay="1.00" arrival="276.00" arrivalLane="C2C3_0" arrivalPos="492.80" arrivalSpeed="12.96" duration="128.00" routeLength="1495.00" waitingTime="0.00" waitingCount="0" stopTime="0.00" timeLoss="14.57" rerouteNo="0" devices="tripinfo_f_0_3.4" vType="DEFAULT_VEHTYPE" speedFactor="0.95" vaporized=""/>
    <tripinfo id="f_1_3.0" depart="205.00" departLane="C0C1_0" departPos="5.10" departSpeed="0.00" departDelay="0.00" arrival="312.00" arrivalLane="C2C3_0" arrivalPos="492.80" arrivalSpeed="15.61" duration="107.00" routeLength="1495.00" waitingTime="2.00" waitingCount="1" stopTime="0.00" timeLoss="14.91" rerouteNo="0" devices="tripinfo_f_1_3.0" vType="DEFAULT_VEHTYPE" speedFactor="1.18" vaporized=""/>
    <tripinfo id="f_1_1.0" depart="200.00" departLane="C4C3_0" departPos="5.10" departSpeed="0.00" departDelay="0.00" arrival="314.00" arrivalLane="C2C1_0" arrivalPos="492.80" arrivalSpeed="14.63" duration="114.00" routeLength="1495.00" waitingTime="4.00" waitingCount="1" stopTime="0.00" timeLoss="18.01" rerouteNo="0" devices="tripinfo_f_1_1.0" vType="DEFAULT_VEHTYPE" speedFactor="1.13" vaporized=""/>
    <tripinfo id="f_1_3.1" depart="214.00" departLane="C0C1_0" departPos="5.10" departSpeed="0.00" departDelay="0.00" arrival="314.00" arrivalLane="C2C3_0" arrivalPos="492.80" arrivalSpeed="15.85" duration="100.00" routeLength="1495.00" waitingTime="0.00" waitingCount="0" stopTime="0.00" timeLoss="7.40" rerouteNo="0" devices="tripinfo_f_1_3.1" vType="DEFAULT_VEHTYPE" speedFactor="1.17" vaporized=""/>
    <tripinfo id="f_1_1.1" depart="208.00" departLane="C4C3_0" departPos="5.10" departSpeed="0.00" departDelay="0.00" arrival="315.00" arrivalLane="C2C1_0" arrivalPos="492.80" arrivalSpeed="14.82" duration="107.00" routeLength="1495.00" waitingTime="0.00" waitingCount="0" stopTime="0.00" timeLoss="13.51" rerouteNo="0" devices="tripinfo_f_1_1.1" vType="DEFAULT_VEHTYPE" speedFactor="1.15" vaporized=""/>
    <tripinfo id="f_1_0.0" depart="209.00" departLane="A2B2_0" departPos="5.10" departSpeed="0.00" departDelay="0.00" arrival="325.00" arrivalLane="C2D2_0" arrivalPos="492.80" arrivalSpeed="12.92" duration="116.00" routeLength="1495.00" waitingTime="0.00" waitingCount="0" stopTime="0.00" timeLoss="8.49" rerouteNo="0" devices="tripinfo_f_1_0.0" vType="DEFAULT_VEHTYPE" speedFactor="1.01" vaporized=""/>
    <tripinfo id="f_1_2.0" depart="201.00" departLane="E2D2_0" departPos="5.10" departSpeed="0.00" departDelay="0.00" arrival="329.00" arrivalLane="C2B2_0" arrivalPos="492.80" arrivalSpeed="12.02" duration="128.00" routeLength="1495.00" waitingTime="0.00" waitingCount="0" stopTime="0.00" timeLoss="11.74" rerouteNo="0" devices="tripinfo_f_1_2.0" vType="DEFAULT_VEHTYPE" speedFactor="0.93" vaporized=""/>
    <tripinfo id="f_1_1.2" depart="222.00" departLane="C4C3_0" departPos="5.10" departSpeed="0.00" departDelay="0.00" arrival="329.00" arrivalLane="C2C1_0" arrivalPos="492.80" arrivalSpeed="15.29" duration="107.00" routeLength="1495.00" waitingTime="3.00" waitingCount="1" stopTime="0.00" timeLoss="15.64" rerouteNo="0" devices="tripinfo_f_1_1.2" vType="DEFAULT_VEHTYPE" speedFactor="1.18" vaporized=""/>
    <tripinfo id="f_1_3.2" depart="217.00" departLane="C0C1_0" departPos="5.10" departSpeed="0.00" departDelay="2.00" arrival="334.00" arrivalLane="C2C3_0" arrivalPos="492.80" arrivalSpeed="13.74" duration="117.00" routeLength="1495.00" waitingTime="0.00" waitingCount="0" stopTime="0.00" timeLoss="7.84" rerouteNo="0" devices="tripinfo_f_1_3.2" vType="DEFAULT_VEHTYPE" speedFactor="0.99" vaporized=""/>
    <tripinfo id="f_1_3.3" depart="220.00" departLane="C0C1_0" departPos="5.10" departSpeed="0.00" departDelay="0.00" arrival="335.00" arrivalLane="C2C3_0" arrivalPos="492.80" arrivalSpeed="13.49" duration="115.00" routeLength="1495.00" waitingTime="0.00" waitingCount="0" stopTime="0.00" timeLoss="9.19" rerouteNo="0" devices="tripinfo_f_1_3.3" vType="DEFAULT_VEHTYPE" speedFactor="1.02" vaporized=""/>
    <tripinfo id="f_1_2.1" depart="232.00" departLane="E2D2_0" departPos="5.10" departSpeed="0.00" departDelay="0.00" arrival="339.00" arrivalLane="C2B2_0" arrivalPos="492.80" arrivalSpeed="14.71" duration="107.00" routeLength="1495.00" waitingTime="0.00" waitingCount="0" stopTime="0.00" timeLoss="7.90" rerouteNo="0" devices="tripinfo_f_1_2.1" vType="DEFAULT_VEHTYPE" speedFactor="1.09" vaporized=""/>
    <tripinfo id="f_1_1.3" depart="225.00" departLane="C4C3_0" departPos="5.10" departSpeed="0.00" departDelay="0.00" arrival="350.00" arrivalLane="C2C1_0" arrivalPos="492.80" arrivalSpeed="13.74" duration="125.00" routeLength="1495.00" waitingTime="7.00" waitingCount="1" stopTime="0.00" timeLoss="20.38" rerouteNo="0" devices="tripinfo_f_1_1.3" vType="DEFAULT_VEHTYPE" speedFactor="1.03" vaporized=""/>
    <tripinfo id="f_1_3.4" depart="223.00" departLane="C0C1_0" departPos="5.10" departSpeed="0.00" departDelay="2.00" arrival="352.00" arrivalLane="C2C3_0" arrivalPos="492.80" arrivalSpeed="13.36" duration="129.00" routeLength="1495.00" waitingTime="3.00" waitingCount="1" stopTime="0.00" timeLoss="18.18" rerouteNo="0" devices="tripinfo_f_1_3.4" vType="DEFAULT_VEHTYPE" speedFactor="0.97" vaporized=""/>
    <tripinfo id="f_1_1.4" depart="231.00" departLane="C4C3_0" departPos="5.10" departSpeed="0.00" departDelay="0.00" arrival="352.00" arrivalLane="C2C1_0" arrivalPos="492.80" arrivalSpeed="14.27" duration="121.00" routeLength="1495.00" waitingTime="3.00" waitingCount="1" stopTime="0.00" timeLoss="17.36" rerouteNo="0" devices="tripinfo_f_1_1.4" vType="DEFAULT_VEHTYPE" speedFactor="1.04" vaporized=""/>
    <tripinfo id="f_1_3.5" depart="226.00" departLane="C0C1_0" departPos="5.10" departSpeed="0.00" departDelay="4.00" arrival="354.00" arrivalLane="C2C3_0" arrivalPos="492.80" arrivalSpeed="14.33" duration="128.00" routeLength="1495.00" waitingTime="2.00" waitingCount="1" stopTime="0.00" timeLoss="29.76" rerouteNo="0" devices="tripinfo_f_1_3.5" vType="DEFAULT_VEHTYPE" speedFactor="1.10" vaporized=""/>
    <tripinfo id="f_1_3.6" depart="229.00" departLane="C0C1_0" departPos="5.10" departSpeed="0.00" departDelay="5.00" arrival="359.00" arrivalLane="C2C3_0" arrivalPos="492.80" arrivalSpeed="12.37" duration="130.00" routeLength="1495.00" waitingTime="0.00" waitingCount="0" stopTime="0.00" timeLoss="10.22" rerouteNo="0" devices="tripinfo_f_1_3.6" vType="DEFAULT_VEHTYPE" speedFactor="0.90" vaporized=""/>
    <tripinfo id="f_1_3.7" depart="232.00" departLane="C0C1_0" departPos="5.10" departSpeed="0.00" departDelay="2.00" arrival="361.00" arrivalLane="C2C3_0" arrivalPos="492.80" arrivalSpeed="14.23" duration="129.00" routeLength="1495.00" waitingTime="0.00" waitingCount="0" stopTime="0.00" timeLoss="29.78" rerouteNo="0" devices="tripinfo_f_1_3.7" vType="DEFAULT_VEHTYPE" speedFactor="1.09" vaporized=""/>
    <tripinfo id="f_1_3.8" depart="235.00" departLane="C0C1_0" departPos="5.10" departSpeed="0.00" departDelay="0.00" arrival="363.00" arrivalLane="C2C3_0" arrivalPos="492.80" arrivalSpeed="13.21" duration="128.00" routeLength="1495.00" waitingTime="0.00" waitingCount="0" stopTime="0.00" timeLoss="19.33" rerouteNo="0" devices="tripinfo_f_1_3.8" vType="DEFAULT_VEHTYPE" speedFactor="1.00" vaporized=""/>
    <tripinfo id="f_1_0.1" depart="230.00" departLane="A2B2_0" departPos="5.10" departSpeed="0.00" departDelay="0.00" arrival="367.00" arrivalLane="C2D2_0" arrivalPos="492.80" arrivalSpeed="12.80" duration="137.00" routeLength="1495.00" waitingTime="11.00" waitingCount="1" stopTime="0.00" timeLoss="24.09" rerouteNo="0" devices="tripinfo_f_1_0.1" vType="DEFAULT_VEHTYPE" speedFactor="0.96" vaporized=""/>
    <tripinfo id="f_1_0.2" depart="233.00" departLane="A2B2_0" departPos="5.10" departSpeed="0.00" departDelay="2.00" arrival="369.00" arrivalLane="C2D2_0" arrivalPos="492.80" arrivalSpeed="13.31" duration="136.00" routeLength="1495.00" waitingTime="11.00" waitingCount="1" stopTime="0.00" timeLoss="31.47" rerouteNo="0" devices="tripinfo_f_1_0.2" vType="DEFAULT_VEHTYPE" speedFactor="1.04" vaporized=""/>
    <tripinfo id="f_1_2.2" depart="238.00" departLane="E2D2_0" departPos="5.10" departSpeed="0.00" departDelay="0.00" arrival="370.00" arrivalLane="C2B2_0" arrivalPos="492.80" arrivalSpeed="11.63" duration="132.00" routeLength="1495.00" waitingTime="0.00" waitingCount="0" stopTime="0.00" timeLoss="8.81" rerouteNo="0" devices="tripinfo_f_1_2.2" vType="DEFAULT_VEHTYPE" speedFactor="0.88" vaporized=""/>
    <tripinfo id="f_2_2.0" depart="251.00" departLane="E2D2_0" departPos="5.10" departSpeed="0.00" departDelay="0.00" arrival="372.00" arrivalLane="C2B2_0" arrivalPos="492.80" arrivalSpeed="14.62" duration="121.00" routeLength="1495.00" waitingTime="0.00" waitingCount="0" stopTime="0.00" timeLoss="21.88" rerouteNo="0" devices="tripinfo_f_2_2.0" vType="DEFAULT_VEHTYPE" speedFactor="1.10" vaporized=""/>
    <tripinfo id="f_1_0.3" depart="240.00" departLane="A2B2_0" departPos="5.10" departSpeed="0.00" departDelay="0.00" arrival="377.00" arrivalLane="C2D2_0" arrivalPos="492.80" arrivalSpeed="11.75" duration="137.00" routeLength="1495.00" waitingTime="0.00" waitingCount="0" stopTime="0.00" timeLoss="9.71" rerouteNo="0" devices="tripinfo_f_1_0.3" vType="DEFAULT_VEHTYPE" speedFactor="0.85" vaporized=""/>
    <tripinfo id="f_2_0.0" depart="250.00" departLane="A2B2_0" departPos="5.10" departSpeed="0.00" departDelay="0.00" arrival="378.00" arrivalLane="C2D2_0" arrivalPos="492.80" arrivalSpeed="12.70" duration="128.00" routeLength="1495.00" waitingTime="0.00" waitingCount="0" stopTime="0.00" timeLoss="35.91" rerouteNo="0" devices="tripinfo_f_2_0.0" vType="DEFAULT_VEHTYPE" speedFactor="1.17" vaporized=""/>
    <tripinfo id="f_2_0.1" depart="253.00" departLane="A2B2_0" departPos="5.10" departSpeed="0.00" departDelay="1.00" arrival="380.00" arrivalLane="C2D2_0" arrivalPos="492.80" arrivalSpeed="13.58" duration="127.00" routeLength="1495.00" waitingTime="0.00" waitingCount="0" stopTime="0.00" timeLoss="18.72" rerouteNo="0" devices="tripinfo_f_2_0.1" vType="DEFAULT_VEHTYPE" speedFactor="1.00" vaporized=""/>
    <tripinfo id="f_2_0.2" depart="257.00" departLane="A2B2_0" departPos="5.10" departSpeed="0.00" departDelay="0.00" arrival="382.00" arrivalLane="C2D2_0" arrivalPos="492.80" arrivalSpeed="15.15" duration="125.00" routeLength="1495.00" waitingTime="0.00" waitingCount="0" stopTime="0.00" timeLoss="28.12" rerouteNo="0" devices="tripinfo_f_2_0.2" vType="DEFAULT_VEHTYPE" speedFactor="1.12" vaporized=""/>
    <tripinfo id="f_2_1.0" depart="259.00" departLane="C4C3_0" departPos="5.10" departSpeed="0.00" departDelay="0.00" arrival="384.00" arrivalLane="C2C1_0" arrivalPos="492.80" arrivalSpeed="12.84" duration="125.00" routeLength="1495.00" waitingTime="1.00" waitingCount="1" stopTime="0.00" timeLoss="15.23" rerouteNo="0" devices="tripinfo_f_2_1.0" vType="DEFAULT_VEHTYPE" speedFactor="0.99" vaporized=""/>
    <tripinfo id="f_1_3.9" depart="238.00" departLane="C0C1_0" departPos="5.10" departSpeed="0.00" departDelay="1.00" arrival="387.00" arrivalLane="C2C3_0" arrivalPos="492.80" arrivalSpeed="12.48" duration="149.00" routeLength="1495.00" waitingTime="15.00" waitingCount="1" stopTime="0.00" timeLoss="29.35" rerouteNo="0" devices="tripinfo_f_1_3.9" vType="DEFAULT_VEHTYPE" speedFactor="0.90" vaporized=""/>
    <tripinfo id="f_1_3.10" depart="245.00" departLane="C0C1_0" departPos="5.10" departSpeed="0.00" departDelay="0.00" arrival="392.00" arrivalLane="C2C3_0" arrivalPos="492.80" arrivalSpeed="10.89" duration="147.00" routeLength="1495.00" waitingTime="5.00" waitingCount="1" stopTime="0.00" timeLoss="20.30" rerouteNo="0" devices="tripinfo_f_1_3.10" vType="DEFAULT_VEHTYPE" speedFactor="0.85" vaporized=""/>
    <tripinfo id="f_2_3.0" depart="250.00" departLane="C0C1_0" departPos="5.10" departSpeed="0.00" departDelay="0.00" arrival="393.00" arrivalLane="C2C3_0" arrivalPos="492.80" arrivalSpeed="13.37" duration="143.00" routeLength="1495.00" waitingTime="3.00" waitingCount="1" stopTime="0.00" timeLoss="37.00" rerouteNo="0" devices="tripinfo_f_2_3.0" vType="DEFAULT_VEHTYPE" speedFactor="1.02" vaporized=""/>
    <tripinfo id="f_2_3.1" depart="253.00" departLane="C0C1_0" departPos="5.10" departSpeed="0.00" departDelay="2.00" arrival="395.00" arrivalLane="C2C3_0" arrivalPos="492.80" arrivalSpeed="13.82" duration="142.00" routeLength="1495.00" waitingTime="3.00" waitingCount="1" stopTime="0.00" timeLoss="34.18" rerouteNo="0" devices="tripinfo_f_2_3.1" vType="DEFAULT_VEHTYPE" speedFactor="1.00" vaporized=""/>
    <tripinfo id="f_2_1.1" depart="263.00" departLane="C4C3_0" departPos="5.10" departSpeed="0.00" departDelay="0.00" arrival="396.00" arrivalLane="C2C1_0" arrivalPos="492.80" arrivalSpeed="11.19" duration="133.00" routeLength="1495.00" waitingTime="0.00" waitingCount="0" stopTime="0.00" timeLoss="10.30" rerouteNo="0" devices="tripinfo_f_2_1.1" vType="DEFAULT_VEHTYPE" speedFactor="0.88" vaporized=""/>
    <tripinfo id="f_2_3.2" depart="256.00" departLane="C0C1_0" departPos="5.10" departSpeed="0.00" departDelay="3.00" arrival="397.00" arrivalLane="C2C3_0" arrivalPos="492.80" arrivalSpeed="15.74" duration="141.00" routeLength="1495.00" waitingTime="4.00" waitingCount="1" stopTime="0.00" timeLoss="45.86" rerouteNo="0" devices="tripinfo_f_2_3.2" vType="DEFAULT_VEHTYPE" speedFactor="1.14" vaporized=""/>
    <tripinfo id="f_2_3.3" depart="259.00" departLane="C0C1_0" departPos="5.10" departSpeed="0.00" departDelay="4.00" arrival="398.00" arrivalLane="C2C3_0" arrivalPos="492.80" arrivalSpeed="14.10" duration="139.00" routeLength="1495.00" waitingTime="2.00" waitingCount="1" stopTime="0.00" timeLoss="33.78" rerouteNo="0" devices="tripinfo_f_2_3.3" vType="DEFAULT_VEHTYPE" speedFactor="1.02" vaporized=""/>
    <tripinfo id="f_2_1.2" depart="266.00" departLane="C4C3_0" departPos="5.10" departSpeed="0.00" departDelay="1.00" arrival="398.00" arrivalLane="C2C1_0" arrivalPos="492.80" arrivalSpeed="12.41" duration="132.00" routeLength="1495.00" waitingTime="0.00" waitingCount="0" stopTime="0.00" timeLoss="13.37" rerouteNo="0" devices="tripinfo_f_2_1.2" vType="DEFAULT_VEHTYPE" speedFactor="0.91" vaporized=""/>
    <tripinfo id="f_2_1.3" depart="269.00" departLane="C4C3_0" departPos="5.10" departSpeed="0.00" departDelay="3.00" arrival="399.00" arrivalLane="C2C1_0" arrivalPos="492.80" arrivalSpeed="13.26" duration="130.00" routeLength="1495.00" waitingTime="0.00" waitingCount="0" stopTime="0.00" timeLoss="24.53" rerouteNo="0" devices="tripinfo_f_2_1.3" vType="DEFAULT_VEHTYPE" speedFactor="1.02" vaporized=""/>
    <tripinfo id="f_2_3.4" depart="262.00" departLane="C0C1_0" departPos="5.10" departSpeed="0.00" departDelay="6.00" arrival="400.00" arrivalLane="C2C3_0" arrivalPos="492.80" arrivalSpeed="14.83" duration="138.00" routeLength="1495.00" waitingTime="2.00" waitingCount="1" stopTime="0.00" timeLoss="38.20" rerouteNo="0" devices="tripinfo_f_2_3.4" vType="DEFAULT_VEHTYPE" speedFactor="1.08" vaporized=""/>
    <tripinfo id="f_2_1.4" depart="274.00" departLane="C4C3_0" departPos="5.10" departSpeed="0.00" departDelay="0.00" arrival="401.00" arrivalLane="C2C1_0" arrivalPos="492.80" arrivalSpeed="12.85" duration="127.00" routeLength="1495.00" waitingTime="0.00" waitingCount="0" stopTime="0.00" timeLoss="16.99" rerouteNo="0" devices="tripinfo_f_2_1.4" vType="DEFAULT_VEHTYPE" speedFactor="0.98" vaporized=""/>
    <tripinfo id="f_2_3.5" depart="265.00" departLane="C0C1_0" departPos="5.10" departSpeed="0.00" departDelay="5.00" arrival="402.00" arrivalLane="C2C3_0" arrivalPos="492.80" arrivalSpeed="11.84" duration="137.00" routeLength="1495.00" waitingTime="1.00" waitingCount="1" stopTime="0.00" timeLoss="21.95" rerouteNo="0" devices="tripinfo_f_2_3.5" vType="DEFAULT_VEHTYPE" speedFactor="0.94" vaporized=""/>
    <tripinfo id="f_2_1.5" depart="289.00" departLane="C4C3_0" departPos="5.10" departSpeed="0.00" departDelay="0.00" arrival="403.00" arrivalLane="C2C1_0" arrivalPos="492.80" arrivalSpeed="15.87" duration="114.00" routeLength="1495.00" waitingTime="0.00" waitingCount="0" stopTime="0.00" timeLoss="19.40" rerouteNo="0" devices="tripinfo_f_2_1.5" vType="DEFAULT_VEHTYPE" speedFactor="1.15" vaporized=""/>
    <tripinfo id="f_2_3.6" depart="268.00" departLane="C0C1_0" departPos="5.10" departSpeed="0.00" departDelay="4.00" arrival="404.00" arrivalLane="C2C3_0" arrivalPos="492.80" arrivalSpeed="11.33" duration="136.00" routeLength="1495.00" waitingTime="0.00" waitingCount="0" stopTime="0.00" timeLoss="16.99" rerouteNo="0" devices="tripinfo_f_2_3.6" vType="DEFAULT_VEHTYPE" speedFactor="0.91" vaporized=""/>
    <tripinfo id="f_2_3.7" depart="271.00" departLane="C0C1_0" departPos="5.10" departSpeed="0.00" departDelay="5.00" arrival="406.00" arrivalLane="C2C3_0" arrivalPos="492.80" arrivalSpeed="13.15" duration="135.00" routeLength="1495.00" waitingTime="0.00" waitingCount="0" stopTime="0.00" timeLoss="23.64" rerouteNo="0" devices="tripinfo_f_2_3.7" vType="DEFAULT_VEHTYPE" speedFactor="0.97" vaporized=""/>
    <tripinfo id="f_2_3.8" depart="274.00" departLane="C0C1_0" departPos="5.10" departSpeed="0.00" departDelay="2.00" arrival="407.00" arrivalLane="C2C3_0" arrivalPos="492.80" arrivalSpeed="13.55" duration="133.00" routeLength="1495.00" waitingTime="0.00" waitingCount="0" stopTime="0.00" timeLoss="23.69" rerouteNo="0" devices="tripinfo_f_2_3.8" vType="DEFAULT_VEHTYPE" speedFactor="0.98" vaporized=""/>
    <tripinfo id="f_2_1.6" depart="292.00" departLane="C4C3_0" departPos="5.10" departSpeed="0.00" departDelay="1.00" arrival="408.00" arrivalLane="C2C1_0" arrivalPos="492.80" arrivalSpeed="12.79" duration="116.00" routeLength="1495.00" waitingTime="0.00" waitingCount="0" stopTime="0.00" timeLoss="8.35" rerouteNo="0" devices="tripinfo_f_2_1.6" vType="DEFAULT_VEHTYPE" speedFactor="1.00" vaporized=""/>