<?xml version="1.0" encoding="UTF-8"?>

<!-- generated on 2024-08-01 09:41:32 by Eclipse SUMO sumo Version 1.17.0
<configuration xmlns:xsi="http://www.w3.org/2001/XMLSchema-instance" xsi:noNamespaceSchemaLocation="http://sumo.dlr.de/xsd/sumoConfiguration.xsd">

    <input>
        <net-file value="single_static.net.xml"/>
        <route-files value="single_5.rou.xml"/>
    </input>

    <output>
        <summary-output value="control_summaries\summary_single_static_5.xml"/>
        <tripinfo-output value="control_summaries\tripinfos_single_static_5.xml"/>
    </output>

    <processing>
        <time-to-teleport value="-1"/>
    </processing>

    <traci_server>
        <remote-port value="64970"/>
    </traci_server>

</configuration>
-->

<tripinfos xmlns:xsi="http://www.w3.org/2001/XMLSchema-instance" xsi:noNamespaceSchemaLocation="http://sumo.dlr.de/xsd/tripinfo_file.xsd">
    <tripinfo id="f_0_0.0" depart="2.00" departLane="A2B2_0" departPos="5.10" departSpeed="0.00" departDelay="0.00" arrival="111.00" arrivalLane="C2D2_0" arrivalPos="492.80" arrivalSpeed="14.64" duration="109.00" routeLength="1495.00" waitingTime="0.00" waitingCount="0" stopTime="0.00" timeLoss="7.00" rerouteNo="0" devices="tripinfo_f_0_0.0" vType="DEFAULT_VEHTYPE" speedFactor="1.06" vaporized=""/>
    <tripinfo id="f_0_0.1" depart="5.00" departLane="A2B2_0" departPos="5.10" departSpeed="0.00" departDelay="0.00" arrival="178.00" arrivalLane="C2D2_0" arrivalPos="492.80" arrivalSpeed="12.80" duration="173.00" routeLength="1495.00" waitingTime="44.00" waitingCount="1" stopTime="0.00" timeLoss="57.70" rerouteNo="0" devices="tripinfo_f_0_0.1" vType="DEFAULT_VEHTYPE" speedFactor="0.94" vaporized=""/>
    <tripinfo id="f_0_0.2" depart="10.00" departLane="A2B2_0" departPos="5.10" departSpeed="0.00" departDelay="0.00" arrival="180.00" arrivalLane="C2D2_0" arrivalPos="492.80" arrivalSpeed="13.73" duration="170.00" routeLength="1495.00" waitingTime="44.00" waitingCount="1" stopTime="0.00" timeLoss="62.58" rerouteNo="0" devices="tripinfo_f_0_0.2" vType="DEFAULT_VEHTYPE" speedFactor="1.01" vaporized=""/>
    <tripinfo id="f_0_0.3" depart="16.00" departLane="A2B2_0" departPos="5.10" departSpeed="0.00" departDelay="0.00" arrival="181.00" arrivalLane="C2D2_0" arrivalPos="492.80" arrivalSpeed="13.88" duration="165.00" routeLength="1495.00" waitingTime="43.00" waitingCount="1" stopTime="0.00" timeLoss="65.34" rerouteNo="0" devices="tripinfo_f_0_0.3" vType="DEFAULT_VEHTYPE" speedFactor="1.08" vaporized=""/>
    <tripinfo id="f_0_0.4" depart="20.00" departLane="A2B2_0" departPos="5.10" departSpeed="0.00" departDelay="0.00" arrival="183.00" arrivalLane="C2D2_0" arrivalPos="492.80" arrivalSpeed="13.35" duration="163.00" routeLength="1495.00" waitingTime="41.00" waitingCount="1" stopTime="0.00" timeLoss="58.03" rerouteNo="0" devices="tripinfo_f_0_0.4" vType="DEFAULT_VEHTYPE" speedFactor="1.03" vaporized=""/>
    <tripinfo id="f_0_2.0" depart="80.00" departLane="E2D2_0" departPos="5.10" departSpeed="0.00" departDelay="0.00" arrival="184.00" arrivalLane="C2B2_0" arrivalPos="492.80" arrivalSpeed="14.55" duration="104.00" routeLength="1495.00" waitingTime="0.00" waitingCount="0" stopTime="0.00" timeLoss="7.49" rerouteNo="0" devices="tripinfo_f_0_2.0" vType="DEFAULT_VEHTYPE" speedFactor="1.12" vaporized=""/>
    <tripinfo id="f_0_2.1" depart="83.00" departLane="E2D2_0" departPos="5.10" departSpeed="0.00" departDelay="1.00" arrival="208.00" arrivalLane="C2B2_0" arrivalPos="492.80" arrivalSpeed="13.48" duration="125.00" routeLength="1495.00" waitingTime="3.00" waitingCount="1" stopTime="0.00" timeLoss="16.33" rerouteNo="0" devices="tripinfo_f_0_2.1" vType="DEFAULT_VEHTYPE" speedFactor="0.99" vaporized=""/>
    <tripinfo id="f_0_2.2" depart="86.00" departLane="E2D2_0" departPos="5.10" departSpeed="0.00" departDelay="3.00" arrival="216.00" arrivalLane="C2B2_0" arrivalPos="492.80" arrivalSpeed="12.86" duration="130.00" routeLength="1495.00" waitingTime="0.00" waitingCount="0" stopTime="0.00" timeLoss="13.28" rerouteNo="0" devices="tripinfo_f_0_2.2" vType="DEFAULT_VEHTYPE" speedFactor="0.93" vaporized=""/>
    <tripinfo id="f_0_1.0" depart="40.00" departLane="C4C3_0" departPos="5.10" departSpeed="0.00" departDelay="0.00" arrival="229.00" arrivalLane="C2C1_0" arrivalPos="492.80" arrivalSpeed="10.39" duration="189.00" routeLength="1495.00" waitingTime="45.00" waitingCount="1" stopTime="0.00" timeLoss="58.71" rerouteNo="0" devices="tripinfo_f_0_1.0" vType="DEFAULT_VEHTYPE" speedFactor="0.83" vaporized=""/>
    <tripinfo id="f_0_1.1" depart="43.00" departLane="C4C3_0" departPos="5.10" departSpeed="0.00" departDelay="0.00" arrival="230.00" arrivalLane="C2C1_0" arrivalPos="492.80" arrivalSpeed="11.44" duration="187.00" routeLength="1495.00" waitingTime="43.00" waitingCount="1" stopTime="0.00" timeLoss="84.09" rerouteNo="0" devices="tripinfo_f_0_1.1" vType="DEFAULT_VEHTYPE" speedFactor="1.05" vaporized=""/>
    <tripinfo id="f_0_1.2" depart="46.00" departLane="C4C3_0" departPos="5.10" departSpeed="0.00" departDelay="1.00" arrival="232.00" arrivalLane="C2C1_0" arrivalPos="492.80" arrivalSpeed="11.96" duration="186.00" routeLength="1495.00" waitingTime="43.00" waitingCount="1" stopTime="0.00" timeLoss="64.39" rerouteNo="0" devices="tripinfo_f_0_1.2" vType="DEFAULT_VEHTYPE" speedFactor="0.89" vaporized=""/>
    <tripinfo id="f_0_1.3" depart="49.00" departLane="C4C3_0" departPos="5.10" departSpeed="0.00" departDelay="1.00" arrival="234.00" arrivalLane="C2C1_0" arrivalPos="492.80" arrivalSpeed="12.65" duration="185.00" routeLength="1495.00" waitingTime="41.00" waitingCount="1" stopTime="0.00" timeLoss="69.81" rerouteNo="0" devices="tripinfo_f_0_1.3" vType="DEFAULT_VEHTYPE" speedFactor="0.94" vaporized=""/>
    <tripinfo id="f_0_1.4" depart="52.00" departLane="C4C3_0" departPos="5.10" departSpeed="0.00" departDelay="3.00" arrival="236.00" arrivalLane="C2C1_0" arrivalPos="492.80" arrivalSpeed="11.77" duration="184.00" routeLength="1495.00" waitingTime="41.00" waitingCount="1" stopTime="0.00" timeLoss="58.02" rerouteNo="0" devices="tripinfo_f_0_1.4" vType="DEFAULT_VEHTYPE" speedFactor="0.86" vaporized=""/>
    <tripinfo id="f_0_1.5" depart="55.00" departLane="C4C3_0" departPos="5.10" departSpeed="0.00" departDelay="1.00" arrival="238.00" arrivalLane="C2C1_0" arrivalPos="492.80" arrivalSpeed="14.86" duration="183.00" routeLength="1495.00" waitingTime="39.00" waitingCount="1" stopTime="0.00" timeLoss="83.65" rerouteNo="0" devices="tripinfo_f_0_1.5" vType="DEFAULT_VEHTYPE" speedFactor="1.09" vaporized=""/>
    <tripinfo id="f_0_1.6" depart="58.00" departLane="C4C3_0" departPos="5.10" departSpeed="0.00" departDelay="0.00" arrival="240.00" arrivalLane="C2C1_0" arrivalPos="492.80" arrivalSpeed="13.05" duration="182.00" routeLength="1495.00" waitingTime="43.00" waitingCount="2" stopTime="0.00" timeLoss="76.39" rerouteNo="0" devices="tripinfo_f_0_1.6" vType="DEFAULT_VEHTYPE" speedFactor="1.03" vaporized=""/>
    <tripinfo id="f_0_1.7" depart="68.00" departLane="C4C3_0" departPos="5.10" departSpeed="0.00" departDelay="0.00" arrival="241.00" arrivalLane="C2C1_0" arrivalPos="492.80" arrivalSpeed="13.32" duration="173.00" routeLength="1495.00" waitingTime="39.00" waitingCount="2" stopTime="0.00" timeLoss="70.15" rerouteNo="0" devices="tripinfo_f_0_1.7" vType="DEFAULT_VEHTYPE" speedFactor="1.05" vaporized=""/>
    <tripinfo id="f_0_3.0" depart="122.00" departLane="C0C1_0" departPos="5.10" departSpeed="0.00" departDelay="0.00" arrival="252.00" arrivalLane="C2C3_0" arrivalPos="492.80" arrivalSpeed="11.95" duration="130.00" routeLength="1495.00" waitingTime="0.00" waitingCount="0" stopTime="0.00" timeLoss="8.46" rerouteNo="0" devices="tripinfo_f_0_3.0" vType="DEFAULT_VEHTYPE" speedFactor="0.89" vaporized=""/>
    <tripinfo id="f_0_3.1" depart="125.00" departLane="C0C1_0" departPos="5.10" departSpeed="0.00" departDelay="1.00" arrival="266.00" arrivalLane="C2C3_0" arrivalPos="492.80" arrivalSpeed="10.76" duration="141.00" routeLength="1495.00" waitingTime="0.00" waitingCount="0" stopTime="0.00" timeLoss="10.01" rerouteNo="0" devices="tripinfo_f_0_3.1" vType="DEFAULT_VEHTYPE" speedFactor="0.83" vaporized=""/>
    <tripinfo id="f_0_2.3" depart="89.00" departLane="E2D2_0" departPos="5.10" departSpeed="0.00" departDelay="2.00" arrival="272.00" arrivalLane="C2B2_0" arrivalPos="492.80" arrivalSpeed="11.87" duration="183.00" routeLength="1495.00" waitingTime="43.00" waitingCount="1" stopTime="0.00" timeLoss="59.57" rerouteNo="0" devices="tripinfo_f_0_2.3" vType="DEFAULT_VEHTYPE" speedFactor="0.88" vaporized=""/>
    <tripinfo id="f_0_2.4" depart="92.00" departLane="E2D2_0" departPos="5.10" departSpeed="0.00" departDelay="4.00" arrival="273.00" arrivalLane="C2B2_0" arrivalPos="492.80" arrivalSpeed="12.59" duration="181.00" routeLength="1495.00" waitingTime="43.00" waitingCount="1" stopTime="0.00" timeLoss="66.41" rerouteNo="0" devices="tripinfo_f_0_2.4" vType="DEFAULT_VEHTYPE" speedFactor="0.94" vaporized=""/>
    <tripinfo id="f_0_2.5" depart="95.00" departLane="E2D2_0" departPos="5.10" departSpeed="0.00" departDelay="3.00" arrival="275.00" arrivalLane="C2B2_0" arrivalPos="492.80" arrivalSpeed="11.88" duration="180.00" routeLength="1495.00" waitingTime="41.00" waitingCount="1" stopTime="0.00" timeLoss="64.55" rerouteNo="0" devices="tripinfo_f_0_2.5" vType="DEFAULT_VEHTYPE" speedFactor="0.94" vaporized=""/>
    <tripinfo id="f_0_2.6" depart="98.00" departLane="E2D2_0" departPos="5.10" departSpeed="0.00" departDelay="4.00" arrival="276.00" arrivalLane="C2B2_0" arrivalPos="492.80" arrivalSpeed="15.31" duration="178.00" routeLength="1495.00" waitingTime="40.00" waitingCount="1" stopTime="0.00" timeLoss="85.07" rerouteNo="0" devices="tripinfo_f_0_2.6" vType="DEFAULT_VEHTYPE" speedFactor="1.16" vaporized=""/>
    <tripinfo id="f_0_2.7" depart="101.00" departLane="E2D2_0" departPos="5.10" departSpeed="0.00" departDelay="6.00" arrival="278.00" arrivalLane="C2B2_0" arrivalPos="492.80" arrivalSpeed="13.57" duration="177.00" routeLength="1495.00" waitingTime="40.00" waitingCount="1" stopTime="0.00" timeLoss="71.02" rerouteNo="0" devices="tripinfo_f_0_2.7" vType="DEFAULT_VEHTYPE" speedFactor="1.02" vaporized=""/>
    <tripinfo id="f_0_2.8" depart="104.00" departLane="E2D2_0" departPos="5.10" departSpeed="0.00" departDelay="8.00" arrival="280.00" arrivalLane="C2B2_0" arrivalPos="492.80" arrivalSpeed="13.87" duration="176.00" routeLength="1495.00" waitingTime="39.00" waitingCount="1" stopTime="0.00" timeLoss="68.85" rerouteNo="0" devices="tripinfo_f_0_2.8" vType="DEFAULT_VEHTYPE" speedFactor="1.01" vaporized=""/>
    <tripinfo id="f_0_2.9" depart="107.00" departLane="E2D2_0" departPos="5.10" departSpeed="0.00" departDelay="10.00" arrival="282.00" arrivalLane="C2B2_0" arrivalPos="492.80" arrivalSpeed="12.63" duration="175.00" routeLength="1495.00" waitingTime="39.00" waitingCount="1" stopTime="0.00" timeLoss="64.00" rerouteNo="0" devices="tripinfo_f_0_2.9" vType="DEFAULT_VEHTYPE" speedFactor="0.97" vaporized=""/>
    <tripinfo id="f_1_1.0" depart="200.00" departLane="C4C3_0" departPos="5.10" departSpeed="0.00" departDelay="0.00" arrival="304.00" arrivalLane="C2C1_0" arrivalPos="492.80" arrivalSpeed="14.85" duration="104.00" routeLength="1495.00" waitingTime="0.00" waitingCount="0" stopTime="0.00" timeLoss="8.61" rerouteNo="0" devices="tripinfo_f_1_1.0" vType="DEFAULT_VEHTYPE" speedFactor="1.13" vaporized=""/>
    <tripinfo id="f_1_1.1" depart="208.00" departLane="C4C3_0" departPos="5.10" departSpeed="0.00" departDelay="0.00" arrival="309.00" arrivalLane="C2C1_0" arrivalPos="492.80" arrivalSpeed="15.90" duration="101.00" routeLength="1495.00" waitingTime="0.00" waitingCount="0" stopTime="0.00" timeLoss="7.47" rerouteNo="0" devices="tripinfo_f_1_1.1" vType="DEFAULT_VEHTYPE" speedFactor="1.15" vaporized=""/>
    <tripinfo id="f_0_3.2" depart="139.00" departLane="C0C1_0" departPos="5.10" departSpeed="0.00" departDelay="0.00" arrival="316.00" arrivalLane="C2C3_0" arrivalPos="492.80" arrivalSpeed="10.88" duration="177.00" routeLength="1495.00" waitingTime="40.00" waitingCount="1" stopTime="0.00" timeLoss="53.21" rerouteNo="0" devices="tripinfo_f_0_3.2" vType="DEFAULT_VEHTYPE" speedFactor="0.87" vaporized=""/>
    <tripinfo id="f_0_3.3" depart="145.00" departLane="C0C1_0" departPos="5.10" departSpeed="0.00" departDelay="0.00" arrival="318.00" arrivalLane="C2C3_0" arrivalPos="492.80" arrivalSpeed="12.39" duration="173.00" routeLength="1495.00" waitingTime="39.00" waitingCount="1" stopTime="0.00" timeLoss="54.88" rerouteNo="0" devices="tripinfo_f_0_3.3" vType="DEFAULT_VEHTYPE" speedFactor="0.92" vaporized=""/>
    <tripinfo id="f_0_3.4" depart="148.00" departLane="C0C1_0" departPos="5.10" departSpeed="0.00" departDelay="1.00" arrival="319.00" arrivalLane="C2C3_0" arrivalPos="492.80" arrivalSpeed="12.18" duration="171.00" routeLength="1495.00" waitingTime="38.00" waitingCount="1" stopTime="0.00" timeLoss="57.51" rerouteNo="0" devices="tripinfo_f_0_3.4" vType="DEFAULT_VEHTYPE" speedFactor="0.95" vaporized=""/>
    <tripinfo id="f_1_3.0" depart="205.00" departLane="C0C1_0" departPos="5.10" departSpeed="0.00" departDelay="0.00" arrival="321.00" arrivalLane="C2C3_0" arrivalPos="492.80" arrivalSpeed="15.83" duration="116.00" routeLength="1495.00" waitingTime="0.00" waitingCount="0" stopTime="0.00" timeLoss="24.02" rerouteNo="0" devices="tripinfo_f_1_3.0" vType="DEFAULT_VEHTYPE" speedFactor="1.18" vaporized=""/>
    <tripinfo id="f_1_1.2" depart="222.00" departLane="C4C3_0" departPos="5.10" departSpeed="0.00" departDelay="0.00" arrival="321.00" arrivalLane="C2C1_0" arrivalPos="492.80" arrivalSpeed="15.63" duration="99.00" routeLength="1495.00" waitingTime="0.00" waitingCount="0" stopTime="0.00" timeLoss="7.64" rerouteNo="0" devices="tripinfo_f_1_1.2" vType="DEFAULT_VEHTYPE" speedFactor="1.18" vaporized=""/>
    <tripinfo id="f_1_3.1" depart="214.00" departLane="C0C1_0" departPos="5.10" departSpeed="0.00" departDelay="0.00" arrival="322.00" arrivalLane="C2C3_0" arrivalPos="492.80" arrivalSpeed="16.12" duration="108.00" routeLength="1495.00" waitingTime="0.00" waitingCount="0" stopTime="0.00" timeLoss="16.09" rerouteNo="0" devices="tripinfo_f_1_3.1" vType="DEFAULT_VEHTYPE" speedFactor="1.17" vaporized=""/>
    <tripinfo id="f_1_3.2" depart="217.00" departLane="C0C1_0" departPos="5.10" departSpeed="0.00" departDelay="2.00" arrival="334.00" arrivalLane="C2C3_0" arrivalPos="492.80" arrivalSpeed="12.67" duration="117.00" routeLength="1495.00" waitingTime="0.00" waitingCount="0" stopTime="0.00" timeLoss="8.58" rerouteNo="0" devices="tripinfo_f_1_3.2" vType="DEFAULT_VEHTYPE" speedFactor="0.99" vaporized=""/>
    <tripinfo id="f_1_3.3" depart="220.00" departLane="C0C1_0" departPos="5.10" departSpeed="0.00" departDelay="0.00" arrival="336.00" arrivalLane="C2C3_0" arrivalPos="492.80" arrivalSpeed="13.54" duration="116.00" routeLength="1495.00" waitingTime="0.00" waitingCount="0" stopTime="0.00" timeLoss="9.91" rerouteNo="0" devices="tripinfo_f_1_3.3" vType="DEFAULT_VEHTYPE" speedFactor="1.02" vaporized=""/>
    <tripinfo id="f_1_1.3" depart="225.00" departLane="C4C3_0" departPos="5.10" departSpeed="0.00" departDelay="0.00" arrival="339.00" arrivalLane="C2C1_0" arrivalPos="492.80" arrivalSpeed="13.96" duration="114.00" routeLength="1495.00" waitingTime="0.00" waitingCount="0" stopTime="0.00" timeLoss="9.32" rerouteNo="0" devices="tripinfo_f_1_1.3" vType="DEFAULT_VEHTYPE" speedFactor="1.03" vaporized=""/>
    <tripinfo id="f_1_3.4" depart="223.00" departLane="C0C1_0" departPos="5.10" departSpeed="0.00" departDelay="2.00" arrival="343.00" arrivalLane="C2C3_0" arrivalPos="492.80" arrivalSpeed="13.01" duration="120.00" routeLength="1495.00" waitingTime="0.00" waitingCount="0" stopTime="0.00" timeLoss="8.88" rerouteNo="0" devices="tripinfo_f_1_3.4" vType="DEFAULT_VEHTYPE" speedFactor="0.97" vaporized=""/>
    <tripinfo id="f_1_1.4" depart="231.00" departLane="C4C3_0" departPos="5.10" departSpeed="0.00" departDelay="0.00" arrival="343.00" arrivalLane="C2C1_0" arrivalPos="492.80" arrivalSpeed="13.69" duration="112.00" routeLength="1495.00" waitingTime="0.00" waitingCount="0" stopTime="0.00" timeLoss="8.31" rerouteNo="0" devices="tripinfo_f_1_1.4" vType="DEFAULT_VEHTYPE" speedFactor="1.04" vaporized=""/>
    <tripinfo id="f_1_3.5" depart="226.00" departLane="C0C1_0" departPos="5.10" departSpeed="0.00" departDelay="4.00" arrival="345.00" arrivalLane="C2C3_0" arrivalPos="492.80" arrivalSpeed="14.18" duration="119.00" routeLength="1495.00" waitingTime="0.00" waitingCount="0" stopTime="0.00" timeLoss="20.53" rerouteNo="0" devices="tripinfo_f_1_3.5" vType="DEFAULT_VEHTYPE" speedFactor="1.10" vaporized=""/>
    <tripinfo id="f_1_0.0" depart="209.00" departLane="A2B2_0" departPos="5.10" departSpeed="0.00" departDelay="0.00" arrival="356.00" arrivalLane="C2D2_0" arrivalPos="492.80" arrivalSpeed="13.79" duration="147.00" routeLength="1495.00" waitingTime="25.00" waitingCount="1" stopTime="0.00" timeLoss="39.08" rerouteNo="0" devices="tripinfo_f_1_0.0" vType="DEFAULT_VEHTYPE" speedFactor="1.01" vaporized=""/>
    <tripinfo id="f_1_2.0" depart="201.00" departLane="E2D2_0" departPos="5.10" departSpeed="0.00" departDelay="0.00" arrival="359.00" arrivalLane="C2B2_0" arrivalPos="492.80" arrivalSpeed="12.65" duration="158.00" routeLength="1495.00" waitingTime="29.00" waitingCount="1" stopTime="0.00" timeLoss="41.75" rerouteNo="0" devices="tripinfo_f_1_2.0" vType="DEFAULT_VEHTYPE" speedFactor="0.93" vaporized=""/>
    <tripinfo id="f_1_0.1" depart="230.00" departLane="A2B2_0" departPos="5.10" departSpeed="0.00" departDelay="0.00" arrival="360.00" arrivalLane="C2D2_0" arrivalPos="492.80" arrivalSpeed="13.00" duration="130.00" routeLength="1495.00" waitingTime="2.00" waitingCount="1" stopTime="0.00" timeLoss="16.93" rerouteNo="0" devices="tripinfo_f_1_0.1" vType="DEFAULT_VEHTYPE" speedFactor="0.96" vaporized=""/>
    <tripinfo id="f_1_2.1" depart="232.00" departLane="E2D2_0" departPos="5.10" departSpeed="0.00" departDelay="0.00" arrival="360.00" arrivalLane="C2B2_0" arrivalPos="492.80" arrivalSpeed="13.92" duration="128.00" routeLength="1495.00" waitingTime="10.00" waitingCount="1" stopTime="0.00" timeLoss="29.04" rerouteNo="0" devices="tripinfo_f_1_2.1" vType="DEFAULT_VEHTYPE" speedFactor="1.09" vaporized=""/>
    <tripinfo id="f_1_0.2" depart="233.00" departLane="A2B2_0" departPos="5.10" departSpeed="0.00" departDelay="2.00" arrival="361.00" arrivalLane="C2D2_0" arrivalPos="492.80" arrivalSpeed="14.20" duration="128.00" routeLength="1495.00" waitingTime="1.00" waitingCount="1" stopTime="0.00" timeLoss="24.20" rerouteNo="0" devices="tripinfo_f_1_0.2" vType="DEFAULT_VEHTYPE" speedFactor="1.04" vaporized=""/>
    <tripinfo id="f_1_2.2" depart="238.00" departLane="E2D2_0" departPos="5.10" departSpeed="0.00" departDelay="0.00" arrival="370.00" arrivalLane="C2B2_0" arrivalPos="492.80" arrivalSpeed="11.70" duration="132.00" routeLength="1495.00" waitingTime="0.00" waitingCount="0" stopTime="0.00" timeLoss="9.11" rerouteNo="0" devices="tripinfo_f_1_2.2" vType="DEFAULT_VEHTYPE" speedFactor="0.88" vaporized=""/>
    <tripinfo id="f_2_2.0" depart="251.00" departLane="E2D2_0" departPos="5.10" departSpeed="0.00" departDelay="0.00" arrival="372.00" arrivalLane="C2B2_0" arrivalPos="492.80" arrivalSpeed="13.99" duration="121.00" routeLength="1495.00" waitingTime="0.00" waitingCount="0" stopTime="0.00" timeLoss="22.27" rerouteNo="0" devices="tripinfo_f_2_2.0" vType="DEFAULT_VEHTYPE" speedFactor="1.10" vaporized=""/>
    <tripinfo id="f_1_0.3" depart="240.00" departLane="A2B2_0" departPos="5.10" departSpeed="0.00" departDelay="0.00" arrival="377.00" arrivalLane="C2D2_0" arrivalPos="492.80" arrivalSpeed="10.67" duration="137.00" routeLength="1495.00" waitingTime="0.00" waitingCount="0" stopTime="0.00" timeLoss="9.96" rerouteNo="0" devices="tripinfo_f_1_0.3" vType="DEFAULT_VEHTYPE" speedFactor="0.85" vaporized=""/>
    <tripinfo id="f_2_0.0" depart="250.00" departLane="A2B2_0" departPos="5.10" departSpeed="0.00" departDelay="0.00" arrival="379.00" arrivalLane="C2D2_0" arrivalPos="492.80" arrivalSpeed="15.76" duration="129.00" routeLength="1495.00" waitingTime="0.00" waitingCount="0" stopTime="0.00" timeLoss="36.01" rerouteNo="0" devices="tripinfo_f_2_0.0" vType="DEFAULT_VEHTYPE" speedFactor="1.17" vaporized=""/>
    <tripinfo id="f_2_0.1" depart="253.00" departLane="A2B2_0" departPos="5.10" departSpeed="0.00" departDelay="1.00" arrival="380.00" arrivalLane="C2D2_0" arrivalPos="492.80" arrivalSpeed="13.44" duration="127.00" routeLength="1495.00" waitingTime="0.00" waitingCount="0" stopTime="0.00" timeLoss="18.69" rerouteNo="0" devices="tripinfo_f_2_0.1" vType="DEFAULT_VEHTYPE" speedFactor="1.00" vaporized=""/>
    <tripinfo id="f_2_0.2" depart="257.00" departLane="A2B2_0" departPos="5.10" departSpeed="0.00" departDelay="0.00" arrival="382.00" arrivalLane="C2D2_0" arrivalPos="492.80" arrivalSpeed="15.51" duration="125.00" routeLength="1495.00" waitingTime="0.00" waitingCount="0" stopTime="0.00" timeLoss="28.13" rerouteNo="0" devices="tripinfo_f_2_0.2" vType="DEFAULT_VEHTYPE" speedFactor="1.12" vaporized=""/>
    <tripinfo id="f_2_2.1" depart="254.00" departLane="E2D2_0" departPos="5.10" departSpeed="0.00" departDelay="2.00" arrival="383.00" arrivalLane="C2B2_0" arrivalPos="492.80" arrivalSpeed="11.86" duration="129.00" routeLength="1495.00" waitingTime="0.00" waitingCount="0" stopTime="0.00" timeLoss="8.98" rerouteNo="0" devices="tripinfo_f_2_2.1" vType="DEFAULT_VEHTYPE" speedFactor="0.90" vaporized=""/>
    <tripinfo id="f_2_2.2" depart="257.00" departLane="E2D2_0" departPos="5.10" departSpeed="0.00" departDelay="1.00" arrival="385.00" arrivalLane="C2B2_0" arrivalPos="492.80" arrivalSpeed="12.82" duration="128.00" routeLength="1495.00" waitingTime="0.00" waitingCount="0" stopTime="0.00" timeLoss="16.38" rerouteNo="0" devices="tripinfo_f_2_2.2" vType="DEFAULT_VEHTYPE" speedFactor="0.97" vaporized=""/>
    <tripinfo id="f_2_2.3" depart="260.00" departLane="E2D2_0" departPos="5.10" departSpeed="0.00" departDelay="2.00" arrival="387.00" arrivalLane="C2B2_0" arrivalPos="492.80" arrivalSpeed="13.06" duration="127.00" routeLength="1495.00" waitingTime="5.00" waitingCount="1" stopTime="0.00" timeLoss="21.02" rerouteNo="0" devices="tripinfo_f_2_2.3" vType="DEFAULT_VEHTYPE" speedFactor="1.02" vaporized=""/>
    <tripinfo id="f_2_2.4" depart="265.00" departLane="E2D2_0" departPos="5.10" departSpeed="0.00" departDelay="0.00" arrival="389.00" arrivalLane="C2B2_0" arrivalPos="492.80" arrivalSpeed="13.30" duration="124.00" routeLength="1495.00" waitingTime="3.00" waitingCount="1" stopTime="0.00" timeLoss="20.23" rerouteNo="0" devices="tripinfo_f_2_2.4" vType="DEFAULT_VEHTYPE" speedFactor="1.04" vaporized=""/>
    <tripinfo id="f_2_2.5" depart="268.00" departLane="E2D2_0" departPos="5.10" departSpeed="0.00" departDelay="2.00" arrival="391.00" arrivalLane="C2B2_0" arrivalPos="492.80" arrivalSpeed="13.30" duration="123.00" routeLength="1495.00" waitingTime="1.00" waitingCount="1" stopTime="0.00" timeLoss="17.25" rerouteNo="0" devices="tripinfo_f_2_2.5" vType="DEFAULT_VEHTYPE" speedFactor="1.02" vaporized=""/>
    <tripinfo id="f_2_1.0" depart="259.00" departLane="C4C3_0" departPos="5.10" departSpeed="0.00" departDelay="0.00" arrival="401.00" arrivalLane="C2C1_0" arrivalPos="492.80" arrivalSpeed="12.75" duration="142.00" routeLength="1495.00" waitingTime="18.00" waitingCount="1" stopTime="0.00" timeLoss="32.51" rerouteNo="0" devices="tripinfo_f_2_1.0" vType="DEFAULT_VEHTYPE" speedFactor="0.99" vaporized=""/>
    <tripinfo id="f_1_3.6" depart="229.00" departLane="C0C1_0" departPos="5.10" departSpeed="0.00" departDelay="5.00" arrival="405.00" arrivalLane="C2C3_0" arrivalPos="492.80" arrivalSpeed="11.39" duration="176.00" routeLength="1495.00" waitingTime="41.00" waitingCount="1" stopTime="0.00" timeLoss="56.17" rerouteNo="0" devices="tripinfo_f_1_3.6" vType="DEFAULT_VEHTYPE" speedFactor="0.90" vaporized=""/>
    <tripinfo id="f_1_3.7" depart="232.00" departLane="C0C1_0" departPos="5.10" departSpeed="0.00" departDelay="2.00" arrival="407.00" arrivalLane="C2C3_0" arrivalPos="492.80" arrivalSpeed="14.94" duration="175.00" routeLength="1495.00" waitingTime="41.00" waitingCount="1" stopTime="0.00" timeLoss="75.55" rerouteNo="0" devices="tripinfo_f_1_3.7" vType="DEFAULT_VEHTYPE" speedFactor="1.09" vaporized=""/>
    <tripinfo id="f_2_1.1" depart="263.00" departLane="C4C3_0" departPos="5.10" departSpeed="0.00" departDelay="0.00" arrival="407.00" arrivalLane="C2C1_0" arrivalPos="492.80" arrivalSpeed="11.13" duration="144.00" routeLength="1495.00" waitingTime="8.00" waitingCount="1" stopTime="0.00" timeLoss="21.83" rerouteNo="0" devices="tripinfo_f_2_1.1" vType="DEFAULT_VEHTYPE" speedFactor="0.88" vaporized=""/>
    <tripinfo id="f_1_3.8" depart="235.00" departLane="C0C1_0" departPos="5.10" departSpeed="0.00" departDelay="0.00" arrival="408.00" arrivalLane="C2C3_0" arrivalPos="492.80" arrivalSpeed="12.59" duration="173.00" routeLength="1495.00" waitingTime="40.00" waitingCount="1" stopTime="0.00" timeLoss="65.06" rerouteNo="0" devices="tripinfo_f_1_3.8" vType="DEFAULT_VEHTYPE" speedFactor="1.00" vaporized=""/>
    <tripinfo id="f_2_1.2" depart="266.00" departLane="C4C3_0" departPos="5.10" departSpeed="0.00" departDelay="1.00" arrival="409.00" arrivalLane="C2C1_0" arrivalPos="492.80" arrivalSpeed="12.09" duration="143.00" routeLength="1495.00" waitingTime="6.00" waitingCount="1" stopTime="0.00" timeLoss="24.79" rerouteNo="0" devices="tripinfo_f_2_1.2" vType="DEFAULT_VEHTYPE" speedFactor="0.91" vaporized=""/>
    <tripinfo id="f_1_3.9" depart="238.00" departLane="C0C1_0" departPos="5.10" departSpeed="0.00" departDelay="1.00" arrival="411.00" arrivalLane="C2C3_0" arrivalPos="492.80" arrivalSpeed="11.29" duration="173.00" routeLength="1495.00" waitingTime="37.00" waitingCount="1" stopTime="0.00" timeLoss="52.88" rerouteNo="0" devices="tripinfo_f_1_3.9" vType="DEFAULT_VEHTYPE" speedFactor="0.90" vaporized=""/>
    <tripinfo id="f_2_1.3" depart="269.00" departLane="C4C3_0" departPos="5.10" departSpeed="0.00" departDelay="3.00" arrival="411.00" arrivalLane="C2C1_0" arrivalPos="492.80" arrivalSpeed="13.85" duration="142.00" routeLength="1495.00" waitingTime="5.00" waitingCount="1" stopTime="0.00" timeLoss="35.82" rerouteNo="0" devices="tripinfo_f_2_1.3" vType="DEFAULT_VEHTYPE" speedFactor="1.02" vaporized=""/>
    <tripinfo id="f_2_1.4" depart="274.00" departLane="C4C3_0" departPos="5.10" departSpeed="0.00" departDelay="0.00" arrival="412.00" arrivalLane="C2C1_0" arrivalPos="492.80" arrivalSpeed="12.64" duration="138.00" routeLength="1495.00" waitingTime="4.00" waitingCount="1" stopTime="0.00" timeLoss="28.23" rerouteNo="0" devices="tripinfo_f_2_1.4" vType="DEFAULT_VEHTYPE" speedFactor="0.98" vaporized=""/>
    <tripinfo id="f_2_1.5" depart="289.00" departLane="C4C3_0" departPos="5.10" departSpeed="0.00" departDelay="0.00" arrival="414.00" arrivalLane="C2C1_0" arrivalPos="492.80" arrivalSpeed="15.50" duration="125.00" routeLength="1495.00" waitingTime="3.00" waitingCount="1" stopTime="0.00" timeLoss="30.57" rerouteNo="0" devices="tripinfo_f_2_1.5" vType="DEFAULT_VEHTYPE" speedFactor="1.15" vaporized=""/>
    <tripinfo id="f_1_3.10" depart="245.00" departLane="C0C1_0" departPos="5.10" departSpeed="0.00" departDelay="0.00" arrival="416.00" arrivalLane="C2C3_0" arrivalPos="492.80" arrivalSpeed="10.63" duration="171.00" routeLength="1495.00" waitingTime="28.00" waitingCount="1" stopTime="0.00" timeLoss="44.32" rerouteNo="0" devices="tripinfo_f_1_3.10" vType="DEFAULT_VEHTYPE" speedFactor="0.85" vaporized=""/>
    <tripinfo id="f_2_1.6" depart="292.00" departLane="C4C3_0" departPos="5.10" departSpeed="0.00" departDelay="1.00" arrival="416.00" arrivalLane="C2C1_0" arrivalPos="492.80" arrivalSpeed="13.22" duration="124.00" routeLength="1495.00" waitingTime="0.00" waitingCount="0" stopTime="0.00" timeLoss="15.78" rerouteNo="0" devices="tripinfo_f_2_1.6" vType="DEFAULT_VEHTYPE" speedFactor="1.00" vaporized=""/>
    <tripinfo id="f_2_3.0" depart="250.00" departLane="C0C1_0" departPos="5.10" departSpeed="0.00" departDelay="0.00" arrival="417.00" arrivalLane="C2C3_0" arrivalPos="492.80" arrivalSpeed="12.97" duration="167.00" routeLength="1495.00" waitingTime="27.00" waitingCount="1" stopTime="0.00" timeLoss="60.95" rerouteNo="0" devices="tripinfo_f_2_3.0" vType="DEFAULT_VEHTYPE" speedFactor="1.02" vaporized=""/>
    <tripinfo id="f_2_1.7" depart="295.00" departLane="C4C3_0" departPos="5.10" departSpeed="0.00" departDelay="2.00" arrival="417.00" arrivalLane="C2C1_0" arrivalPos="492.80" arrivalSpeed="13.42" duration="122.00" routeLength="1495.00" waitingTime="0.00" waitingCount="0" stopTime="0.00" timeLoss="18.65" rerouteNo="0" devices="tripinfo_f_2_1.7" vType="DEFAULT_VEHTYPE" speedFactor="1.04" vaporized=""/>
    <tripinfo id="f_2_3.1" depart="253.00" departLane="C0C1_0" departPos="5.10" departSpeed="0.00" departDelay="2.00" arrival="419.00" arrivalLane="C2C3_0" arrivalPos="492.80" arrivalSpeed="13.24" duration="166.00" routeLength="1495.00" waitingTime="27.00" waitingCount="1" stopTime="0.00" timeLoss="58.23" rerouteNo="0" devices="tripinfo_f_2_3.1" vType="DEFAULT_VEHTYPE" speedFactor="1.00" vaporized=""/>
    <tripinfo id="f_2_3.2" depart="256.00" departLane="C0C1_0" departPos="5.10" departSpeed="0.00" departDelay="3.00" arrival="421.00" arrivalLane="C2C3_0" arrivalPos="492.80" arrivalSpeed="15.56" duration="165.00" routeLength="1495.00" waitingTime="26.00" waitingCount="1" stopTime="0.00" timeLoss="69.86" rerouteNo="0" devices="tripinfo_f_2_3.2" vType="DEFAULT_VEHTYPE" speedFactor="1.14" vaporized=""/>