<?xml version="1.0" encoding="UTF-8"?>

<!-- generated on 2024-08-01 09:41:16 by Eclipse SUMO sumo Version 1.17.0
<configuration xmlns:xsi="http://www.w3.org/2001/XMLSchema-instance" xsi:noNamespaceSchemaLocation="http://sumo.dlr.de/xsd/sumoConfiguration.xsd">

    <input>
        <net-file value="single_no_lights.net.xml"/>
        <route-files value="single_3.rou.xml"/>
    </input>

    <output>
        <summary-output value="control_summaries\summary_single_no_lights_3.xml"/>
        <tripinfo-output value="control_summaries\tripinfos_single_no_lights_3.xml"/>
    </output>

    <processing>
        <time-to-teleport value="-1"/>
    </processing>

    <traci_server>
        <remote-port value="64956"/>
    </traci_server>

</configuration>
-->

<tripinfos xmlns:xsi="http://www.w3.org/2001/XMLSchema-instance" xsi:noNamespaceSchemaLocation="http://sumo.dlr.de/xsd/tripinfo_file.xsd">
    <tripinfo id="f_0_0.0" depart="2.00" departLane="A2B2_0" departPos="5.10" departSpeed="0.00" departDelay="0.00" arrival="114.00" arrivalLane="C2D2_0" arrivalPos="492.80" arrivalSpeed="14.19" duration="112.00" routeLength="1495.00" waitingTime="0.00" waitingCount="0" stopTime="0.00" timeLoss="9.59" rerouteNo="0" devices="tripinfo_f_0_0.0" vType="DEFAULT_VEHTYPE" speedFactor="1.06" vaporized=""/>
    <tripinfo id="f_0_0.1" depart="5.00" departLane="A2B2_0" departPos="5.10" departSpeed="0.00" departDelay="0.00" arrival="130.00" arrivalLane="C2D2_0" arrivalPos="492.80" arrivalSpeed="12.11" duration="125.00" routeLength="1495.00" waitingTime="0.00" waitingCount="0" stopTime="0.00" timeLoss="10.05" rerouteNo="0" devices="tripinfo_f_0_0.1" vType="DEFAULT_VEHTYPE" speedFactor="0.94" vaporized=""/>
    <tripinfo id="f_0_0.2" depart="10.00" departLane="A2B2_0" departPos="5.10" departSpeed="0.00" departDelay="0.00" arrival="132.00" arrivalLane="C2D2_0" arrivalPos="492.80" arrivalSpeed="13.37" duration="122.00" routeLength="1495.00" waitingTime="0.00" waitingCount="0" stopTime="0.00" timeLoss="14.94" rerouteNo="0" devices="tripinfo_f_0_0.2" vType="DEFAULT_VEHTYPE" speedFactor="1.01" vaporized=""/>
    <tripinfo id="f_0_0.3" depart="16.00" departLane="A2B2_0" departPos="5.10" departSpeed="0.00" departDelay="0.00" arrival="134.00" arrivalLane="C2D2_0" arrivalPos="492.80" arrivalSpeed="14.87" duration="118.00" routeLength="1495.00" waitingTime="0.00" waitingCount="0" stopTime="0.00" timeLoss="17.62" rerouteNo="0" devices="tripinfo_f_0_0.3" vType="DEFAULT_VEHTYPE" speedFactor="1.08" vaporized=""/>
    <tripinfo id="f_0_0.4" depart="20.00" departLane="A2B2_0" departPos="5.10" departSpeed="0.00" departDelay="0.00" arrival="136.00" arrivalLane="C2D2_0" arrivalPos="492.80" arrivalSpeed="13.30" duration="116.00" routeLength="1495.00" waitingTime="0.00" waitingCount="0" stopTime="0.00" timeLoss="10.86" rerouteNo="0" devices="tripinfo_f_0_0.4" vType="DEFAULT_VEHTYPE" speedFactor="1.03" vaporized=""/>
    <tripinfo id="f_0_1.0" depart="26.00" departLane="C4C3_0" departPos="5.10" departSpeed="0.00" departDelay="0.00" arrival="137.00" arrivalLane="C2C1_0" arrivalPos="492.80" arrivalSpeed="13.46" duration="111.00" routeLength="1495.00" waitingTime="0.00" waitingCount="0" stopTime="0.00" timeLoss="7.88" rerouteNo="0" devices="tripinfo_f_0_1.0" vType="DEFAULT_VEHTYPE" speedFactor="1.05" vaporized=""/>
    <tripinfo id="f_0_1.1" depart="29.00" departLane="C4C3_0" departPos="5.10" departSpeed="0.00" departDelay="2.00" arrival="160.00" arrivalLane="C2C1_0" arrivalPos="492.80" arrivalSpeed="11.81" duration="131.00" routeLength="1495.00" waitingTime="0.00" waitingCount="0" stopTime="0.00" timeLoss="9.02" rerouteNo="0" devices="tripinfo_f_0_1.1" vType="DEFAULT_VEHTYPE" speedFactor="0.89" vaporized=""/>
    <tripinfo id="f_0_2.0" depart="40.00" departLane="E2D2_0" departPos="5.10" departSpeed="0.00" departDelay="0.00" arrival="165.00" arrivalLane="C2B2_0" arrivalPos="492.80" arrivalSpeed="12.90" duration="125.00" routeLength="1495.00" waitingTime="2.00" waitingCount="1" stopTime="0.00" timeLoss="15.79" rerouteNo="0" devices="tripinfo_f_0_2.0" vType="DEFAULT_VEHTYPE" speedFactor="0.99" vaporized=""/>
    <tripinfo id="f_0_1.2" depart="32.00" departLane="C4C3_0" departPos="5.10" departSpeed="0.00" departDelay="3.00" arrival="167.00" arrivalLane="C2C1_0" arrivalPos="492.80" arrivalSpeed="11.12" duration="135.00" routeLength="1495.00" waitingTime="0.00" waitingCount="0" stopTime="0.00" timeLoss="8.98" rerouteNo="0" devices="tripinfo_f_0_1.2" vType="DEFAULT_VEHTYPE" speedFactor="0.86" vaporized=""/>
    <tripinfo id="f_0_0.5" depart="25.00" departLane="A2B2_0" departPos="5.10" departSpeed="0.00" departDelay="0.00" arrival="172.00" arrivalLane="C2D2_0" arrivalPos="492.80" arrivalSpeed="11.39" duration="147.00" routeLength="1495.00" waitingTime="3.00" waitingCount="1" stopTime="0.00" timeLoss="17.19" rerouteNo="0" devices="tripinfo_f_0_0.5" vType="DEFAULT_VEHTYPE" speedFactor="0.83" vaporized=""/>
    <tripinfo id="f_0_1.3" depart="42.00" departLane="C4C3_0" departPos="5.10" departSpeed="0.00" departDelay="0.00" arrival="174.00" arrivalLane="C2C1_0" arrivalPos="492.80" arrivalSpeed="11.73" duration="132.00" routeLength="1495.00" waitingTime="0.00" waitingCount="0" stopTime="0.00" timeLoss="9.07" rerouteNo="0" devices="tripinfo_f_0_1.3" vType="DEFAULT_VEHTYPE" speedFactor="0.88" vaporized=""/>
    <tripinfo id="f_0_1.4" depart="45.00" departLane="C4C3_0" departPos="5.10" departSpeed="0.00" departDelay="0.00" arrival="176.00" arrivalLane="C2C1_0" arrivalPos="492.80" arrivalSpeed="13.94" duration="131.00" routeLength="1495.00" waitingTime="0.00" waitingCount="0" stopTime="0.00" timeLoss="24.50" rerouteNo="0" devices="tripinfo_f_0_1.4" vType="DEFAULT_VEHTYPE" speedFactor="1.02" vaporized=""/>
    <tripinfo id="f_0_2.1" depart="43.00" departLane="E2D2_0" departPos="5.10" departSpeed="0.00" departDelay="1.00" arrival="177.00" arrivalLane="C2B2_0" arrivalPos="492.80" arrivalSpeed="12.39" duration="134.00" routeLength="1495.00" waitingTime="4.00" waitingCount="1" stopTime="0.00" timeLoss="19.40" rerouteNo="0" devices="tripinfo_f_0_2.1" vType="DEFAULT_VEHTYPE" speedFactor="0.94" vaporized=""/>
    <tripinfo id="f_0_2.2" depart="46.00" departLane="E2D2_0" departPos="5.10" departSpeed="0.00" departDelay="1.00" arrival="180.00" arrivalLane="C2B2_0" arrivalPos="492.80" arrivalSpeed="13.85" duration="134.00" routeLength="1495.00" waitingTime="5.00" waitingCount="2" stopTime="0.00" timeLoss="26.54" rerouteNo="0" devices="tripinfo_f_0_2.2" vType="DEFAULT_VEHTYPE" speedFactor="1.01" vaporized=""/>
    <tripinfo id="f_0_1.5" depart="51.00" departLane="C4C3_0" departPos="5.10" departSpeed="0.00" departDelay="0.00" arrival="182.00" arrivalLane="C2C1_0" arrivalPos="492.80" arrivalSpeed="11.67" duration="131.00" routeLength="1495.00" waitingTime="0.00" waitingCount="0" stopTime="0.00" timeLoss="9.11" rerouteNo="0" devices="tripinfo_f_0_1.5" vType="DEFAULT_VEHTYPE" speedFactor="0.89" vaporized=""/>
    <tripinfo id="f_0_2.3" depart="50.00" departLane="E2D2_0" departPos="5.10" departSpeed="0.00" departDelay="0.00" arrival="183.00" arrivalLane="C2B2_0" arrivalPos="492.80" arrivalSpeed="12.53" duration="133.00" routeLength="1495.00" waitingTime="3.00" waitingCount="1" stopTime="0.00" timeLoss="21.97" rerouteNo="0" devices="tripinfo_f_0_2.3" vType="DEFAULT_VEHTYPE" speedFactor="0.97" vaporized=""/>
    <tripinfo id="f_0_0.6" depart="29.00" departLane="A2B2_0" departPos="5.10" departSpeed="0.00" departDelay="0.00" arrival="184.00" arrivalLane="C2D2_0" arrivalPos="492.80" arrivalSpeed="12.04" duration="155.00" routeLength="1495.00" waitingTime="12.00" waitingCount="2" stopTime="0.00" timeLoss="39.90" rerouteNo="0" devices="tripinfo_f_0_0.6" vType="DEFAULT_VEHTYPE" speedFactor="0.94" vaporized=""/>
    <tripinfo id="f_0_3.0" depart="80.00" departLane="C0C1_0" departPos="5.10" departSpeed="0.00" departDelay="0.00" arrival="185.00" arrivalLane="C2C3_0" arrivalPos="492.80" arrivalSpeed="14.58" duration="105.00" routeLength="1495.00" waitingTime="0.00" waitingCount="0" stopTime="0.00" timeLoss="7.13" rerouteNo="0" devices="tripinfo_f_0_3.0" vType="DEFAULT_VEHTYPE" speedFactor="1.10" vaporized=""/>
    <tripinfo id="f_0_0.7" depart="32.00" departLane="A2B2_0" departPos="5.10" departSpeed="0.00" departDelay="0.00" arrival="186.00" arrivalLane="C2D2_0" arrivalPos="492.80" arrivalSpeed="13.85" duration="154.00" routeLength="1495.00" waitingTime="11.00" waitingCount="2" stopTime="0.00" timeLoss="54.57" rerouteNo="0" devices="tripinfo_f_0_0.7" vType="DEFAULT_VEHTYPE" speedFactor="1.09" vaporized=""/>
    <tripinfo id="f_0_0.8" depart="35.00" departLane="A2B2_0" departPos="5.10" departSpeed="0.00" departDelay="1.00" arrival="187.00" arrivalLane="C2D2_0" arrivalPos="492.80" arrivalSpeed="14.09" duration="152.00" routeLength="1495.00" waitingTime="8.00" waitingCount="1" stopTime="0.00" timeLoss="47.02" rerouteNo="0" devices="tripinfo_f_0_0.8" vType="DEFAULT_VEHTYPE" speedFactor="1.03" vaporized=""/>
    <tripinfo id="f_0_0.9" depart="39.00" departLane="A2B2_0" departPos="5.10" departSpeed="0.00" departDelay="0.00" arrival="191.00" arrivalLane="C2D2_0" arrivalPos="492.80" arrivalSpeed="14.02" duration="152.00" routeLength="1495.00" waitingTime="9.00" waitingCount="2" stopTime="0.00" timeLoss="49.04" rerouteNo="0" devices="tripinfo_f_0_0.9" vType="DEFAULT_VEHTYPE" speedFactor="1.05" vaporized=""/>
    <tripinfo id="f_0_3.1" depart="83.00" departLane="C0C1_0" departPos="5.10" departSpeed="0.00" departDelay="2.00" arrival="196.00" arrivalLane="C2C3_0" arrivalPos="492.80" arrivalSpeed="13.68" duration="113.00" routeLength="1495.00" waitingTime="0.00" waitingCount="0" stopTime="0.00" timeLoss="7.93" rerouteNo="0" devices="tripinfo_f_0_3.1" vType="DEFAULT_VEHTYPE" speedFactor="1.03" vaporized=""/>
    <tripinfo id="f_0_2.4" depart="65.00" departLane="E2D2_0" departPos="5.10" departSpeed="0.00" departDelay="0.00" arrival="197.00" arrivalLane="C2B2_0" arrivalPos="492.80" arrivalSpeed="12.39" duration="132.00" routeLength="1495.00" waitingTime="1.00" waitingCount="1" stopTime="0.00" timeLoss="16.13" rerouteNo="0" devices="tripinfo_f_0_2.4" vType="DEFAULT_VEHTYPE" speedFactor="0.93" vaporized=""/>
    <tripinfo id="f_0_3.2" depart="86.00" departLane="C0C1_0" departPos="5.10" departSpeed="0.00" departDelay="1.00" arrival="198.00" arrivalLane="C2C3_0" arrivalPos="492.80" arrivalSpeed="13.60" duration="112.00" routeLength="1495.00" waitingTime="0.00" waitingCount="0" stopTime="0.00" timeLoss="8.13" rerouteNo="0" devices="tripinfo_f_0_3.2" vType="DEFAULT_VEHTYPE" speedFactor="1.04" vaporized=""/>
    <tripinfo id="f_0_3.3" depart="89.00" departLane="C0C1_0" departPos="5.10" departSpeed="0.00" departDelay="3.00" arrival="201.00" arrivalLane="C2C3_0" arrivalPos="492.80" arrivalSpeed="14.11" duration="112.00" routeLength="1495.00" waitingTime="0.00" waitingCount="0" stopTime="0.00" timeLoss="7.89" rerouteNo="0" devices="tripinfo_f_0_3.3" vType="DEFAULT_VEHTYPE" speedFactor="1.04" vaporized=""/>
    <tripinfo id="f_0_1.6" depart="56.00" departLane="C4C3_0" departPos="5.10" departSpeed="0.00" departDelay="0.00" arrival="205.00" arrivalLane="C2C1_0" arrivalPos="492.80" arrivalSpeed="10.29" duration="149.00" routeLength="1495.00" waitingTime="2.00" waitingCount="1" stopTime="0.00" timeLoss="18.19" rerouteNo="0" devices="tripinfo_f_0_1.6" vType="DEFAULT_VEHTYPE" speedFactor="0.83" vaporized=""/>
    <tripinfo id="f_0_1.7" depart="59.00" departLane="C4C3_0" departPos="5.10" departSpeed="0.00" departDelay="1.00" arrival="207.00" arrivalLane="C2C1_0" arrivalPos="492.80" arrivalSpeed="12.09" duration="148.00" routeLength="1495.00" waitingTime="1.00" waitingCount="1" stopTime="0.00" timeLoss="23.81" rerouteNo="0" devices="tripinfo_f_0_1.7" vType="DEFAULT_VEHTYPE" speedFactor="0.87" vaporized=""/>
    <tripinfo id="f_0_1.8" depart="62.00" departLane="C4C3_0" departPos="5.10" departSpeed="0.00" departDelay="2.00" arrival="208.00" arrivalLane="C2C1_0" arrivalPos="492.80" arrivalSpeed="12.36" duration="146.00" routeLength="1495.00" waitingTime="0.00" waitingCount="0" stopTime="0.00" timeLoss="32.44" rerouteNo="0" devices="tripinfo_f_0_1.8" vType="DEFAULT_VEHTYPE" speedFactor="0.95" vaporized=""/>
    <tripinfo id="f_0_3.4" depart="92.00" departLane="C0C1_0" departPos="5.10" departSpeed="0.00" departDelay="5.00" arrival="209.00" arrivalLane="C2C3_0" arrivalPos="492.80" arrivalSpeed="13.56" duration="117.00" routeLength="1495.00" waitingTime="0.00" waitingCount="0" stopTime="0.00" timeLoss="8.19" rerouteNo="0" devices="tripinfo_f_0_3.4" vType="DEFAULT_VEHTYPE" speedFactor="1.00" vaporized=""/>
    <tripinfo id="f_0_1.9" depart="69.00" departLane="C4C3_0" departPos="5.10" departSpeed="0.00" departDelay="0.00" arrival="210.00" arrivalLane="C2C1_0" arrivalPos="492.80" arrivalSpeed="14.87" duration="141.00" routeLength="1495.00" waitingTime="0.00" waitingCount="0" stopTime="0.00" timeLoss="47.27" rerouteNo="0" devices="tripinfo_f_0_1.9" vType="DEFAULT_VEHTYPE" speedFactor="1.15" vaporized=""/>
    <tripinfo id="f_0_2.5" depart="68.00" departLane="E2D2_0" departPos="5.10" departSpeed="0.00" departDelay="1.00" arrival="212.00" arrivalLane="C2B2_0" arrivalPos="492.80" arrivalSpeed="15.87" duration="144.00" routeLength="1495.00" waitingTime="19.00" waitingCount="2" stopTime="0.00" timeLoss="51.91" rerouteNo="0" devices="tripinfo_f_0_2.5" vType="DEFAULT_VEHTYPE" speedFactor="1.18" vaporized=""/>
    <tripinfo id="f_0_1.10" depart="73.00" departLane="C4C3_0" departPos="5.10" departSpeed="0.00" departDelay="0.00" arrival="212.00" arrivalLane="C2C1_0" arrivalPos="492.80" arrivalSpeed="12.72" duration="139.00" routeLength="1495.00" waitingTime="0.00" waitingCount="0" stopTime="0.00" timeLoss="30.12" rerouteNo="0" devices="tripinfo_f_0_1.10" vType="DEFAULT_VEHTYPE" speedFactor="0.99" vaporized=""/>
    <tripinfo id="f_0_1.11" depart="77.00" departLane="C4C3_0" departPos="5.10" departSpeed="0.00" departDelay="0.00" arrival="213.00" arrivalLane="C2C1_0" arrivalPos="492.80" arrivalSpeed="13.89" duration="136.00" routeLength="1495.00" waitingTime="0.00" waitingCount="0" stopTime="0.00" timeLoss="30.32" rerouteNo="0" devices="tripinfo_f_0_1.11" vType="DEFAULT_VEHTYPE" speedFactor="1.02" vaporized=""/>
    <tripinfo id="f_0_0.10" depart="42.00" departLane="A2B2_0" departPos="5.10" departSpeed="0.00" departDelay="2.00" arrival="214.00" arrivalLane="C2D2_0" arrivalPos="492.80" arrivalSpeed="15.59" duration="172.00" routeLength="1495.00" waitingTime="28.00" waitingCount="3" stopTime="0.00" timeLoss="75.96" rerouteNo="0" devices="tripinfo_f_0_0.10" vType="DEFAULT_VEHTYPE" speedFactor="1.12" vaporized=""/>
    <tripinfo id="f_0_1.12" depart="80.00" departLane="C4C3_0" departPos="5.10" departSpeed="0.00" departDelay="0.00" arrival="215.00" arrivalLane="C2C1_0" arrivalPos="492.80" arrivalSpeed="15.40" duration="135.00" routeLength="1495.00" waitingTime="0.00" waitingCount="0" stopTime="0.00" timeLoss="43.24" rerouteNo="0" devices="tripinfo_f_0_1.12" vType="DEFAULT_VEHTYPE" speedFactor="1.18" vaporized=""/>
    <tripinfo id="f_0_1.13" depart="83.00" departLane="C4C3_0" departPos="5.10" departSpeed="0.00" departDelay="0.00" arrival="217.00" arrivalLane="C2C1_0" arrivalPos="492.80" arrivalSpeed="12.62" duration="134.00" routeLength="1495.00" waitingTime="0.00" waitingCount="0" stopTime="0.00" timeLoss="21.12" rerouteNo="0" devices="tripinfo_f_0_1.13" vType="DEFAULT_VEHTYPE" speedFactor="0.96" vaporized=""/>
    <tripinfo id="f_0_1.14" depart="86.00" departLane="C4C3_0" departPos="5.10" departSpeed="0.00" departDelay="1.00" arrival="219.00" arrivalLane="C2C1_0" arrivalPos="492.80" arrivalSpeed="14.29" duration="133.00" routeLength="1495.00" waitingTime="0.00" waitingCount="0" stopTime="0.00" timeLoss="33.58" rerouteNo="0" devices="tripinfo_f_0_1.14" vType="DEFAULT_VEHTYPE" speedFactor="1.09" vaporized=""/>
    <tripinfo id="f_0_1.15" depart="89.00" departLane="C4C3_0" departPos="5.10" departSpeed="0.00" departDelay="2.00" arrival="220.00" arrivalLane="C2C1_0" arrivalPos="492.80" arrivalSpeed="14.19" duration="131.00" routeLength="1495.00" waitingTime="0.00" waitingCount="0" stopTime="0.00" timeLoss="31.82" rerouteNo="0" devices="tripinfo_f_0_1.15" vType="DEFAULT_VEHTYPE" speedFactor="1.09" vaporized=""/>
    <tripinfo id="f_0_3.5" depart="95.00" departLane="C0C1_0" departPos="5.10" departSpeed="0.00" departDelay="6.00" arrival="228.00" arrivalLane="C2C3_0" arrivalPos="492.80" arrivalSpeed="12.02" duration="133.00" routeLength="1495.00" waitingTime="0.00" waitingCount="0" stopTime="0.00" timeLoss="10.01" rerouteNo="0" devices="tripinfo_f_0_3.5" vType="DEFAULT_VEHTYPE" speedFactor="0.88" vaporized=""/>
    <tripinfo id="f_0_1.16" depart="92.00" departLane="C4C3_0" departPos="5.10" departSpeed="0.00" departDelay="2.00" arrival="229.00" arrivalLane="C2C1_0" arrivalPos="492.80" arrivalSpeed="10.65" duration="137.00" routeLength="1495.00" waitingTime="0.00" waitingCount="0" stopTime="0.00" timeLoss="10.04" rerouteNo="0" devices="tripinfo_f_0_1.16" vType="DEFAULT_VEHTYPE" speedFactor="0.85" vaporized=""/>
    <tripinfo id="f_0_3.6" depart="98.00" departLane="C0C1_0" departPos="5.10" departSpeed="0.00" departDelay="3.00" arrival="230.00" arrivalLane="C2C3_0" arrivalPos="492.80" arrivalSpeed="13.82" duration="132.00" routeLength="1495.00" waitingTime="5.00" waitingCount="1" stopTime="0.00" timeLoss="25.55" rerouteNo="0" devices="tripinfo_f_0_3.6" vType="DEFAULT_VEHTYPE" speedFactor="1.02" vaporized=""/>
    <tripinfo id="f_0_1.17" depart="96.00" departLane="C4C3_0" departPos="5.10" departSpeed="0.00" departDelay="0.00" arrival="231.00" arrivalLane="C2C1_0" arrivalPos="492.80" arrivalSpeed="13.93" duration="135.00" routeLength="1495.00" waitingTime="0.00" waitingCount="0" stopTime="0.00" timeLoss="26.79" rerouteNo="0" devices="tripinfo_f_0_1.17" vType="DEFAULT_VEHTYPE" speedFactor="1.00" vaporized=""/>
    <tripinfo id="f_0_2.6" depart="79.00" departLane="E2D2_0" departPos="5.10" departSpeed="0.00" departDelay="0.00" arrival="232.00" arrivalLane="C2B2_0" arrivalPos="492.80" arrivalSpeed="12.54" duration="153.00" routeLength="1495.00" waitingTime="25.00" waitingCount="2" stopTime="0.00" timeLoss="41.87" rerouteNo="0" devices="tripinfo_f_0_2.6" vType="DEFAULT_VEHTYPE" speedFactor="0.97" vaporized=""/>
    <tripinfo id="f_0_0.11" depart="45.00" departLane="A2B2_0" departPos="5.10" departSpeed="0.00" departDelay="4.00" arrival="234.00" arrivalLane="C2D2_0" arrivalPos="492.80" arrivalSpeed="11.61" duration="189.00" routeLength="1495.00" waitingTime="34.00" waitingCount="4" stopTime="0.00" timeLoss="72.43" rerouteNo="0" devices="tripinfo_f_0_0.11" vType="DEFAULT_VEHTYPE" speedFactor="0.93" vaporized=""/>
    <tripinfo id="f_0_0.12" depart="48.00" departLane="A2B2_0" departPos="5.10" departSpeed="0.00" departDelay="4.00" arrival="236.00" arrivalLane="C2D2_0" arrivalPos="492.80" arrivalSpeed="12.23" duration="188.00" routeLength="1495.00" waitingTime="27.00" waitingCount="3" stopTime="0.00" timeLoss="72.36" rerouteNo="0" devices="tripinfo_f_0_0.12" vType="DEFAULT_VEHTYPE" speedFactor="0.94" vaporized=""/>
    <tripinfo id="f_0_0.13" depart="51.00" departLane="A2B2_0" departPos="5.10" departSpeed="0.00" departDelay="6.00" arrival="237.00" arrivalLane="C2D2_0" arrivalPos="492.80" arrivalSpeed="14.69" duration="186.00" routeLength="1495.00" waitingTime="28.00" waitingCount="4" stopTime="0.00" timeLoss="92.93" rerouteNo="0" devices="tripinfo_f_0_0.13" vType="DEFAULT_VEHTYPE" speedFactor="1.16" vaporized=""/>
    <tripinfo id="f_0_2.7" depart="92.00" departLane="E2D2_0" departPos="5.10" departSpeed="0.00" departDelay="0.00" arrival="239.00" arrivalLane="C2B2_0" arrivalPos="492.80" arrivalSpeed="11.81" duration="147.00" routeLength="1495.00" waitingTime="6.00" waitingCount="1" stopTime="0.00" timeLoss="20.80" rerouteNo="0" devices="tripinfo_f_0_2.7" vType="DEFAULT_VEHTYPE" speedFactor="0.85" vaporized=""/>
    <tripinfo id="f_0_0.14" depart="59.00" departLane="A2B2_0" departPos="5.10" departSpeed="0.00" departDelay="0.00" arrival="240.00" arrivalLane="C2D2_0" arrivalPos="492.80" arrivalSpeed="11.49" duration="181.00" routeLength="1495.00" waitingTime="27.00" waitingCount="3" stopTime="0.00" timeLoss="62.95" rerouteNo="0" devices="tripinfo_f_0_0.14" vType="DEFAULT_VEHTYPE" speedFactor="0.92" vaporized=""/>
    <tripinfo id="f_0_0.15" depart="62.00" departLane="A2B2_0" departPos="5.10" departSpeed="0.00" departDelay="0.00" arrival="241.00" arrivalLane="C2D2_0" arrivalPos="492.80" arrivalSpeed="13.84" duration="179.00" routeLength="1495.00" waitingTime="26.00" waitingCount="3" stopTime="0.00" timeLoss="83.75" rerouteNo="0" devices="tripinfo_f_0_0.15" vType="DEFAULT_VEHTYPE" speedFactor="1.13" vaporized=""/>
    <tripinfo id="f_0_2.8" depart="97.00" departLane="E2D2_0" departPos="5.10" departSpeed="0.00" departDelay="0.00" arrival="241.00" arrivalLane="C2B2_0" arrivalPos="492.80" arrivalSpeed="13.36" duration="144.00" routeLength="1495.00" waitingTime="5.00" waitingCount="1" stopTime="0.00" timeLoss="35.27" rerouteNo="0" devices="tripinfo_f_0_2.8" vType="DEFAULT_VEHTYPE" speedFactor="1.00" vaporized=""/>
    <tripinfo id="f_0_0.16" depart="71.00" departLane="A2B2_0" departPos="5.10" departSpeed="0.00" departDelay="0.00" arrival="243.00" arrivalLane="C2D2_0" arrivalPos="492.80" arrivalSpeed="13.43" duration="172.00" routeLength="1495.00" waitingTime="23.00" waitingCount="3" stopTime="0.00" timeLoss="64.41" rerouteNo="0" devices="tripinfo_f_0_0.16" vType="DEFAULT_VEHTYPE" speedFactor="1.01" vaporized=""/>
    <tripinfo id="f_0_0.17" depart="74.00" departLane="A2B2_0" departPos="5.10" departSpeed="0.00" departDelay="2.00" arrival="245.00" arrivalLane="C2D2_0" arrivalPos="492.80" arrivalSpeed="15.51" duration="171.00" routeLength="1495.00" waitingTime="20.00" waitingCount="3" stopTime="0.00" timeLoss="78.22" rerouteNo="0" devices="tripinfo_f_0_0.17" vType="DEFAULT_VEHTYPE" speedFactor="1.17" vaporized=""/>
    <tripinfo id="f_0_0.18" depart="81.00" departLane="A2B2_0" departPos="5.10" departSpeed="0.00" departDelay="0.00" arrival="252.00" arrivalLane="C2D2_0" arrivalPos="492.80" arrivalSpeed="11.57" duration="171.00" routeLength="1495.00" waitingTime="18.00" waitingCount="2" stopTime="0.00" timeLoss="51.44" rerouteNo="0" devices="tripinfo_f_0_0.18" vType="DEFAULT_VEHTYPE" speedFactor="0.90" vaporized=""/>
    <tripinfo id="f_0_0.19" depart="89.00" departLane="A2B2_0" departPos="5.10" departSpeed="0.00" departDelay="0.00" arrival="254.00" arrivalLane="C2D2_0" arrivalPos="492.80" arrivalSpeed="11.73" duration="165.00" routeLength="1495.00" waitingTime="14.00" waitingCount="2" stopTime="0.00" timeLoss="45.28" rerouteNo="0" devices="tripinfo_f_0_0.19" vType="DEFAULT_VEHTYPE" speedFactor="0.90" vaporized=""/>
    <tripinfo id="f_0_0.20" depart="95.00" departLane="A2B2_0" departPos="5.10" departSpeed="0.00" departDelay="0.00" arrival="256.00" arrivalLane="C2D2_0" arrivalPos="492.80" arrivalSpeed="15.58" duration="161.00" routeLength="1495.00" waitingTime="14.00" waitingCount="2" stopTime="0.00" timeLoss="68.32" rerouteNo="0" devices="tripinfo_f_0_0.20" vType="DEFAULT_VEHTYPE" speedFactor="1.17" vaporized=""/>
    <tripinfo id="f_0_0.21" depart="98.00" departLane="A2B2_0" departPos="5.10" departSpeed="0.00" departDelay="2.00" arrival="258.00" arrivalLane="C2D2_0" arrivalPos="492.80" arrivalSpeed="14.40" duration="160.00" routeLength="1495.00" waitingTime="15.00" waitingCount="2" stopTime="0.00" timeLoss="60.91" rerouteNo="0" devices="tripinfo_f_0_0.21" vType="DEFAULT_VEHTYPE" speedFactor="1.10" vaporized=""/>
    <tripinfo id="f_1_2.0" depart="153.00" departLane="E2D2_0" departPos="5.10" departSpeed="0.00" departDelay="0.00" arrival="269.00" arrivalLane="C2B2_0" arrivalPos="492.80" arrivalSpeed="14.18" duration="116.00" routeLength="1495.00" waitingTime="0.00" waitingCount="0" stopTime="0.00" timeLoss="10.11" rerouteNo="0" devices="tripinfo_f_1_2.0" vType="DEFAULT_VEHTYPE" speedFactor="1.02" vaporized=""/>
    <tripinfo id="f_1_3.0" depart="150.00" departLane="C0C1_0" departPos="5.10" departSpeed="0.00" departDelay="0.00" arrival="279.00" arrivalLane="C2C3_0" arrivalPos="492.80" arrivalSpeed="12.33" duration="129.00" routeLength="1495.00" waitingTime="0.00" waitingCount="0" stopTime="0.00" timeLoss="8.78" rerouteNo="0" devices="tripinfo_f_1_3.0" vType="DEFAULT_VEHTYPE" speedFactor="0.90" vaporized=""/>
    <tripinfo id="f_1_3.1" depart="153.00" departLane="C0C1_0" departPos="5.10" departSpeed="0.00" departDelay="1.00" arrival="281.00" arrivalLane="C2C3_0" arrivalPos="492.80" arrivalSpeed="15.12" duration="128.00" routeLength="1495.00" waitingTime="0.00" waitingCount="0" stopTime="0.00" timeLoss="33.04" rerouteNo="0" devices="tripinfo_f_1_3.1" vType="DEFAULT_VEHTYPE" speedFactor="1.14" vaporized=""/>
    <tripinfo id="f_1_3.2" depart="160.00" departLane="C0C1_0" departPos="5.10" departSpeed="0.00" departDelay="0.00" arrival="282.00" arrivalLane="C2C3_0" arrivalPos="492.80" arrivalSpeed="14.47" duration="122.00" routeLength="1495.00" waitingTime="0.00" waitingCount="0" stopTime="0.00" timeLoss="22.47" rerouteNo="0" devices="tripinfo_f_1_3.2" vType="DEFAULT_VEHTYPE" speedFactor="1.08" vaporized=""/>
    <tripinfo id="f_1_2.1" depart="163.00" departLane="E2D2_0" departPos="5.10" departSpeed="0.00" departDelay="0.00" arrival="283.00" arrivalLane="C2B2_0" arrivalPos="492.80" arrivalSpeed="13.35" duration="120.00" routeLength="1495.00" waitingTime="0.00" waitingCount="0" stopTime="0.00" timeLoss="10.23" rerouteNo="0" devices="tripinfo_f_1_2.1" vType="DEFAULT_VEHTYPE" speedFactor="0.99" vaporized=""/>
    <tripinfo id="f_1_3.3" depart="163.00" departLane="C0C1_0" departPos="5.10" departSpeed="0.00" departDelay="1.00" arrival="284.00" arrivalLane="C2C3_0" arrivalPos="492.80" arrivalSpeed="12.99" duration="121.00" routeLength="1495.00" waitingTime="0.00" waitingCount="0" stopTime="0.00" timeLoss="14.70" rerouteNo="0" devices="tripinfo_f_1_3.3" vType="DEFAULT_VEHTYPE" speedFactor="1.02" vaporized=""/>
    <tripinfo id="f_1_0.0" depart="155.00" departLane="A2B2_0" departPos="5.10" departSpeed="0.00" departDelay="0.00" arrival="286.00" arrivalLane="C2D2_0" arrivalPos="492.80" arrivalSpeed="13.12" duration="131.00" routeLength="1495.00" waitingTime="6.00" waitingCount="1" stopTime="0.00" timeLoss="19.05" rerouteNo="0" devices="tripinfo_f_1_0.0" vType="DEFAULT_VEHTYPE" speedFactor="0.97" vaporized=""/>
    <tripinfo id="f_1_3.4" depart="166.00" departLane="C0C1_0" departPos="5.10" departSpeed="0.00" departDelay="3.00" arrival="291.00" arrivalLane="C2C3_0" arrivalPos="492.80" arrivalSpeed="12.56" duration="125.00" routeLength="1495.00" waitingTime="0.00" waitingCount="0" stopTime="0.00" timeLoss="9.74" rerouteNo="0" devices="tripinfo_f_1_3.4" vType="DEFAULT_VEHTYPE" speedFactor="0.94" vaporized=""/>
    <tripinfo id="f_1_1.0" depart="171.00" departLane="C4C3_0" departPos="5.10" departSpeed="0.00" departDelay="0.00" arrival="295.00" arrivalLane="C2C1_0" arrivalPos="492.80" arrivalSpeed="13.02" duration="124.00" routeLength="1495.00" waitingTime="0.00" waitingCount="0" stopTime="0.00" timeLoss="8.59" rerouteNo="0" devices="tripinfo_f_1_1.0" vType="DEFAULT_VEHTYPE" speedFactor="0.94" vaporized=""/>
    <tripinfo id="f_1_1.1" depart="175.00" departLane="C4C3_0" departPos="5.10" departSpeed="0.00" departDelay="0.00" arrival="296.00" arrivalLane="C2C1_0" arrivalPos="492.80" arrivalSpeed="13.76" duration="121.00" routeLength="1495.00" waitingTime="0.00" waitingCount="0" stopTime="0.00" timeLoss="18.74" rerouteNo="0" devices="tripinfo_f_1_1.1" vType="DEFAULT_VEHTYPE" speedFactor="1.06" vaporized=""/>
    <tripinfo id="f_1_3.5" depart="169.00" departLane="C0C1_0" departPos="5.10" departSpeed="0.00" departDelay="2.00" arrival="297.00" arrivalLane="C2C3_0" arrivalPos="492.80" arrivalSpeed="11.98" duration="128.00" routeLength="1495.00" waitingTime="0.00" waitingCount="0" stopTime="0.00" timeLoss="9.74" rerouteNo="0" devices="tripinfo_f_1_3.5" vType="DEFAULT_VEHTYPE" speedFactor="0.91" vaporized=""/>
    <tripinfo id="f_1_1.2" depart="178.00" departLane="C4C3_0" departPos="5.10" departSpeed="0.00" departDelay="1.00" arrival="298.00" arrivalLane="C2C1_0" arrivalPos="492.80" arrivalSpeed="13.61" duration="120.00" routeLength="1495.00" waitingTime="0.00" waitingCount="0" stopTime="0.00" timeLoss="10.15" rerouteNo="0" devices="tripinfo_f_1_1.2" vType="DEFAULT_VEHTYPE" speedFactor="0.98" vaporized=""/>
    <tripinfo id="f_1_3.6" depart="172.00" departLane="C0C1_0" departPos="5.10" departSpeed="0.00" departDelay="4.00" arrival="299.00" arrivalLane="C2C3_0" arrivalPos="492.80" arrivalSpeed="13.26" duration="127.00" routeLength="1495.00" waitingTime="0.00" waitingCount="0" stopTime="0.00" timeLoss="20.83" rerouteNo="0" devices="tripinfo_f_1_3.6" vType="DEFAULT_VEHTYPE" speedFactor="1.02" vaporized=""/>
    <tripinfo id="f_1_3.7" depart="176.00" departLane="C0C1_0" departPos="5.10" departSpeed="0.00" departDelay="0.00" arrival="300.00" arrivalLane="C2C3_0" arrivalPos="492.80" arrivalSpeed="12.90" duration="124.00" routeLength="1495.00" waitingTime="0.00" waitingCount="0" stopTime="0.00" timeLoss="11.20" rerouteNo="0" devices="tripinfo_f_1_3.7" vType="DEFAULT_VEHTYPE" speedFactor="0.96" vaporized=""/>
    <tripinfo id="f_1_1.3" depart="181.00" departLane="C4C3_0" departPos="5.10" departSpeed="0.00" departDelay="3.00" arrival="300.00" arrivalLane="C2C1_0" arrivalPos="492.80" arrivalSpeed="12.76" duration="119.00" routeLength="1495.00" waitingTime="0.00" waitingCount="0" stopTime="0.00" timeLoss="8.73" rerouteNo="0" devices="tripinfo_f_1_1.3" vType="DEFAULT_VEHTYPE" speedFactor="0.98" vaporized=""/>