<?xml version="1.0" encoding="UTF-8"?>

<!-- generated on 2024-08-22 12:21:43 by Eclipse SUMO sumo Version 1.17.0
<configuration xmlns:xsi="http://www.w3.org/2001/XMLSchema-instance" xsi:noNamespaceSchemaLocation="http://sumo.dlr.de/xsd/sumoConfiguration.xsd">

    <input>
        <net-file value="single_no_lights.net.xml"/>
        <route-files value="single_1.rou.xml"/>
    </input>

    <output>
        <summary-output value="control_summaries\summary_single_no_lights_1.xml"/>
        <tripinfo-output value="control_summaries\tripinfos_single_no_lights_1.xml"/>
    </output>

    <processing>
        <time-to-teleport value="-1"/>
    </processing>

    <traci_server>
        <remote-port value="56796"/>
    </traci_server>

</configuration>
-->

<tripinfos xmlns:xsi="http://www.w3.org/2001/XMLSchema-instance" xsi:noNamespaceSchemaLocation="http://sumo.dlr.de/xsd/tripinfo_file.xsd">
    <tripinfo id="f_0_0.0" depart="2.00" departLane="A2B2_0" departPos="5.10" departSpeed="0.00" departDelay="0.00" arrival="114.00" arrivalLane="C2D2_0" arrivalPos="492.80" arrivalSpeed="14.16" duration="112.00" routeLength="1495.00" waitingTime="0.00" waitingCount="0" stopTime="0.00" timeLoss="9.57" rerouteNo="0" devices="tripinfo_f_0_0.0" vType="DEFAULT_VEHTYPE" speedFactor="1.06" vaporized=""/>
    <tripinfo id="f_0_0.1" depart="5.00" departLane="A2B2_0" departPos="5.10" departSpeed="0.00" departDelay="0.00" arrival="131.00" arrivalLane="C2D2_0" arrivalPos="492.80" arrivalSpeed="11.93" duration="126.00" routeLength="1495.00" waitingTime="0.00" waitingCount="0" stopTime="0.00" timeLoss="11.26" rerouteNo="0" devices="tripinfo_f_0_0.1" vType="DEFAULT_VEHTYPE" speedFactor="0.94" vaporized=""/>
    <tripinfo id="f_0_0.2" depart="10.00" departLane="A2B2_0" departPos="5.10" departSpeed="0.00" departDelay="0.00" arrival="133.00" arrivalLane="C2D2_0" arrivalPos="492.80" arrivalSpeed="12.96" duration="123.00" routeLength="1495.00" waitingTime="0.00" waitingCount="0" stopTime="0.00" timeLoss="16.09" rerouteNo="0" devices="tripinfo_f_0_0.2" vType="DEFAULT_VEHTYPE" speedFactor="1.01" vaporized=""/>
    <tripinfo id="f_0_0.3" depart="16.00" departLane="A2B2_0" departPos="5.10" departSpeed="0.00" departDelay="0.00" arrival="135.00" arrivalLane="C2D2_0" arrivalPos="492.80" arrivalSpeed="15.01" duration="119.00" routeLength="1495.00" waitingTime="0.00" waitingCount="0" stopTime="0.00" timeLoss="18.72" rerouteNo="0" devices="tripinfo_f_0_0.3" vType="DEFAULT_VEHTYPE" speedFactor="1.08" vaporized=""/>
    <tripinfo id="f_0_0.4" depart="20.00" departLane="A2B2_0" departPos="5.10" departSpeed="0.00" departDelay="0.00" arrival="136.00" arrivalLane="C2D2_0" arrivalPos="492.80" arrivalSpeed="13.38" duration="116.00" routeLength="1495.00" waitingTime="0.00" waitingCount="0" stopTime="0.00" timeLoss="11.42" rerouteNo="0" devices="tripinfo_f_0_0.4" vType="DEFAULT_VEHTYPE" speedFactor="1.03" vaporized=""/>
    <tripinfo id="f_0_1.0" depart="27.00" departLane="C4C3_0" departPos="5.10" departSpeed="0.00" departDelay="0.00" arrival="138.00" arrivalLane="C2C1_0" arrivalPos="492.80" arrivalSpeed="14.09" duration="111.00" routeLength="1495.00" waitingTime="0.00" waitingCount="0" stopTime="0.00" timeLoss="7.56" rerouteNo="0" devices="tripinfo_f_0_1.0" vType="DEFAULT_VEHTYPE" speedFactor="1.05" vaporized=""/>
    <tripinfo id="f_0_2.0" depart="45.00" departLane="E2D2_0" departPos="5.10" departSpeed="0.00" departDelay="0.00" arrival="158.00" arrivalLane="C2B2_0" arrivalPos="492.80" arrivalSpeed="14.22" duration="113.00" routeLength="1495.00" waitingTime="0.00" waitingCount="0" stopTime="0.00" timeLoss="9.36" rerouteNo="0" devices="tripinfo_f_0_2.0" vType="DEFAULT_VEHTYPE" speedFactor="1.05" vaporized=""/>
    <tripinfo id="f_0_2.1" depart="50.00" departLane="E2D2_0" departPos="5.10" departSpeed="0.00" departDelay="0.00" arrival="159.00" arrivalLane="C2B2_0" arrivalPos="492.80" arrivalSpeed="14.71" duration="109.00" routeLength="1495.00" waitingTime="0.00" waitingCount="0" stopTime="0.00" timeLoss="12.96" rerouteNo="0" devices="tripinfo_f_0_2.1" vType="DEFAULT_VEHTYPE" speedFactor="1.12" vaporized=""/>
    <tripinfo id="f_0_0.5" depart="25.00" departLane="A2B2_0" departPos="5.10" departSpeed="0.00" departDelay="0.00" arrival="166.00" arrivalLane="C2D2_0" arrivalPos="492.80" arrivalSpeed="10.34" duration="141.00" routeLength="1495.00" waitingTime="0.00" waitingCount="0" stopTime="0.00" timeLoss="10.72" rerouteNo="0" devices="tripinfo_f_0_0.5" vType="DEFAULT_VEHTYPE" speedFactor="0.83" vaporized=""/>
    <tripinfo id="f_0_0.6" depart="34.00" departLane="A2B2_0" departPos="5.10" departSpeed="0.00" departDelay="0.00" arrival="167.00" arrivalLane="C2D2_0" arrivalPos="492.80" arrivalSpeed="11.85" duration="133.00" routeLength="1495.00" waitingTime="0.00" waitingCount="0" stopTime="0.00" timeLoss="11.40" rerouteNo="0" devices="tripinfo_f_0_0.6" vType="DEFAULT_VEHTYPE" speedFactor="0.89" vaporized=""/>
    <tripinfo id="f_0_1.1" depart="42.00" departLane="C4C3_0" departPos="5.10" departSpeed="0.00" departDelay="0.00" arrival="177.00" arrivalLane="C2C1_0" arrivalPos="492.80" arrivalSpeed="10.62" duration="135.00" routeLength="1495.00" waitingTime="0.00" waitingCount="0" stopTime="0.00" timeLoss="9.23" rerouteNo="0" devices="tripinfo_f_0_1.1" vType="DEFAULT_VEHTYPE" speedFactor="0.86" vaporized=""/>
    <tripinfo id="f_0_1.2" depart="45.00" departLane="C4C3_0" departPos="5.10" departSpeed="0.00" departDelay="0.00" arrival="179.00" arrivalLane="C2C1_0" arrivalPos="492.80" arrivalSpeed="13.42" duration="134.00" routeLength="1495.00" waitingTime="0.00" waitingCount="0" stopTime="0.00" timeLoss="28.49" rerouteNo="0" devices="tripinfo_f_0_1.2" vType="DEFAULT_VEHTYPE" speedFactor="1.03" vaporized=""/>
    <tripinfo id="f_0_1.3" depart="60.00" departLane="C4C3_0" departPos="5.10" departSpeed="0.00" departDelay="0.00" arrival="181.00" arrivalLane="C2C1_0" arrivalPos="492.80" arrivalSpeed="12.71" duration="121.00" routeLength="1495.00" waitingTime="0.00" waitingCount="0" stopTime="0.00" timeLoss="11.56" rerouteNo="0" devices="tripinfo_f_0_1.3" vType="DEFAULT_VEHTYPE" speedFactor="0.99" vaporized=""/>
    <tripinfo id="f_0_0.7" depart="41.00" departLane="A2B2_0" departPos="5.10" departSpeed="0.00" departDelay="0.00" arrival="183.00" arrivalLane="C2D2_0" arrivalPos="492.80" arrivalSpeed="11.95" duration="142.00" routeLength="1495.00" waitingTime="7.00" waitingCount="2" stopTime="0.00" timeLoss="26.98" rerouteNo="0" devices="tripinfo_f_0_0.7" vType="DEFAULT_VEHTYPE" speedFactor="0.94" vaporized=""/>
    <tripinfo id="f_0_0.8" depart="44.00" departLane="A2B2_0" departPos="5.10" departSpeed="0.00" departDelay="0.00" arrival="185.00" arrivalLane="C2D2_0" arrivalPos="492.80" arrivalSpeed="14.18" duration="141.00" routeLength="1495.00" waitingTime="5.00" waitingCount="2" stopTime="0.00" timeLoss="41.73" rerouteNo="0" devices="tripinfo_f_0_0.8" vType="DEFAULT_VEHTYPE" speedFactor="1.09" vaporized=""/>
    <tripinfo id="f_0_1.4" depart="85.00" departLane="C4C3_0" departPos="5.10" departSpeed="0.00" departDelay="0.00" arrival="185.00" arrivalLane="C2C1_0" arrivalPos="492.80" arrivalSpeed="15.08" duration="100.00" routeLength="1495.00" waitingTime="0.00" waitingCount="0" stopTime="0.00" timeLoss="6.99" rerouteNo="0" devices="tripinfo_f_0_1.4" vType="DEFAULT_VEHTYPE" speedFactor="1.16" vaporized=""/>
    <tripinfo id="f_0_2.2" depart="67.00" departLane="E2D2_0" departPos="5.10" departSpeed="0.00" departDelay="0.00" arrival="198.00" arrivalLane="C2B2_0" arrivalPos="492.80" arrivalSpeed="12.04" duration="131.00" routeLength="1495.00" waitingTime="0.00" waitingCount="0" stopTime="0.00" timeLoss="14.50" rerouteNo="0" devices="tripinfo_f_0_2.2" vType="DEFAULT_VEHTYPE" speedFactor="0.93" vaporized=""/>
    <tripinfo id="f_0_3.0" depart="85.00" departLane="C0C1_0" departPos="5.10" departSpeed="0.00" departDelay="0.00" arrival="198.00" arrivalLane="C2C3_0" arrivalPos="492.80" arrivalSpeed="13.04" duration="113.00" routeLength="1495.00" waitingTime="0.00" waitingCount="0" stopTime="0.00" timeLoss="7.24" rerouteNo="0" devices="tripinfo_f_0_3.0" vType="DEFAULT_VEHTYPE" speedFactor="1.02" vaporized=""/>
    <tripinfo id="f_0_1.5" depart="88.00" departLane="C4C3_0" departPos="5.10" departSpeed="0.00" departDelay="1.00" arrival="202.00" arrivalLane="C2C1_0" arrivalPos="492.80" arrivalSpeed="13.29" duration="114.00" routeLength="1495.00" waitingTime="0.00" waitingCount="0" stopTime="0.00" timeLoss="7.43" rerouteNo="0" devices="tripinfo_f_0_1.5" vType="DEFAULT_VEHTYPE" speedFactor="1.01" vaporized=""/>
    <tripinfo id="f_0_2.3" depart="97.00" departLane="E2D2_0" departPos="5.10" departSpeed="0.00" departDelay="0.00" arrival="206.00" arrivalLane="C2B2_0" arrivalPos="492.80" arrivalSpeed="14.93" duration="109.00" routeLength="1495.00" waitingTime="0.00" waitingCount="0" stopTime="0.00" timeLoss="13.28" rerouteNo="0" devices="tripinfo_f_0_2.3" vType="DEFAULT_VEHTYPE" speedFactor="1.13" vaporized=""/>
    <tripinfo id="f_0_3.1" depart="88.00" departLane="C0C1_0" departPos="5.10" departSpeed="0.00" departDelay="1.00" arrival="207.00" arrivalLane="C2C3_0" arrivalPos="492.80" arrivalSpeed="13.44" duration="119.00" routeLength="1495.00" waitingTime="0.00" waitingCount="0" stopTime="0.00" timeLoss="8.33" rerouteNo="0" devices="tripinfo_f_0_3.1" vType="DEFAULT_VEHTYPE" speedFactor="0.97" vaporized=""/>
    <tripinfo id="f_0_0.9" depart="71.00" departLane="A2B2_0" departPos="5.10" departSpeed="0.00" departDelay="0.00" arrival="215.00" arrivalLane="C2D2_0" arrivalPos="492.80" arrivalSpeed="11.53" duration="144.00" routeLength="1495.00" waitingTime="6.00" waitingCount="1" stopTime="0.00" timeLoss="20.57" rerouteNo="0" devices="tripinfo_f_0_0.9" vType="DEFAULT_VEHTYPE" speedFactor="0.88" vaporized=""/>
    <tripinfo id="f_0_0.10" depart="74.00" departLane="A2B2_0" departPos="5.10" departSpeed="0.00" departDelay="2.00" arrival="216.00" arrivalLane="C2D2_0" arrivalPos="492.80" arrivalSpeed="12.67" duration="142.00" routeLength="1495.00" waitingTime="6.00" waitingCount="1" stopTime="0.00" timeLoss="27.46" rerouteNo="0" devices="tripinfo_f_0_0.10" vType="DEFAULT_VEHTYPE" speedFactor="0.94" vaporized=""/>
    <tripinfo id="f_0_0.11" depart="81.00" departLane="A2B2_0" departPos="5.10" departSpeed="0.00" departDelay="0.00" arrival="218.00" arrivalLane="C2D2_0" arrivalPos="492.80" arrivalSpeed="11.83" duration="137.00" routeLength="1495.00" waitingTime="5.00" waitingCount="1" stopTime="0.00" timeLoss="21.79" rerouteNo="0" devices="tripinfo_f_0_0.11" vType="DEFAULT_VEHTYPE" speedFactor="0.94" vaporized=""/>
    <tripinfo id="f_0_1.6" depart="90.00" departLane="C4C3_0" departPos="5.10" departSpeed="0.00" departDelay="0.00" arrival="222.00" arrivalLane="C2C1_0" arrivalPos="492.80" arrivalSpeed="11.91" duration="132.00" routeLength="1495.00" waitingTime="0.00" waitingCount="0" stopTime="0.00" timeLoss="10.15" rerouteNo="0" devices="tripinfo_f_0_1.6" vType="DEFAULT_VEHTYPE" speedFactor="0.89" vaporized=""/>
    <tripinfo id="f_0_1.7" depart="96.00" departLane="C4C3_0" departPos="5.10" departSpeed="0.00" departDelay="0.00" arrival="223.00" arrivalLane="C2C1_0" arrivalPos="492.80" arrivalSpeed="12.10" duration="127.00" routeLength="1495.00" waitingTime="0.00" waitingCount="0" stopTime="0.00" timeLoss="13.52" rerouteNo="0" devices="tripinfo_f_0_1.7" vType="DEFAULT_VEHTYPE" speedFactor="0.95" vaporized=""/>
    <tripinfo id="f_0_3.2" depart="95.00" departLane="C0C1_0" departPos="5.10" departSpeed="0.00" departDelay="0.00" arrival="228.00" arrivalLane="C2C3_0" arrivalPos="492.80" arrivalSpeed="12.10" duration="133.00" routeLength="1495.00" waitingTime="0.00" waitingCount="0" stopTime="0.00" timeLoss="9.29" rerouteNo="0" devices="tripinfo_f_0_3.2" vType="DEFAULT_VEHTYPE" speedFactor="0.87" vaporized=""/>
    <tripinfo id="f_0_0.12" depart="95.00" departLane="A2B2_0" departPos="5.10" departSpeed="0.00" departDelay="0.00" arrival="236.00" arrivalLane="C2D2_0" arrivalPos="492.80" arrivalSpeed="10.87" duration="141.00" routeLength="1495.00" waitingTime="0.00" waitingCount="0" stopTime="0.00" timeLoss="10.06" rerouteNo="0" devices="tripinfo_f_0_0.12" vType="DEFAULT_VEHTYPE" speedFactor="0.83" vaporized=""/>
    <tripinfo id="f_0_0.13" depart="98.00" departLane="A2B2_0" departPos="5.10" departSpeed="0.00" departDelay="2.00" arrival="238.00" arrivalLane="C2D2_0" arrivalPos="492.80" arrivalSpeed="12.62" duration="140.00" routeLength="1495.00" waitingTime="0.00" waitingCount="0" stopTime="0.00" timeLoss="21.85" rerouteNo="0" devices="tripinfo_f_0_0.13" vType="DEFAULT_VEHTYPE" speedFactor="0.92" vaporized=""/>
    <tripinfo id="f_1_2.0" depart="153.00" departLane="E2D2_0" departPos="5.10" departSpeed="0.00" departDelay="0.00" arrival="254.00" arrivalLane="C2B2_0" arrivalPos="492.80" arrivalSpeed="15.26" duration="101.00" routeLength="1495.00" waitingTime="0.00" waitingCount="0" stopTime="0.00" timeLoss="8.99" rerouteNo="0" devices="tripinfo_f_1_2.0" vType="DEFAULT_VEHTYPE" speedFactor="1.18" vaporized=""/>
    <tripinfo id="f_1_0.0" depart="155.00" departLane="A2B2_0" departPos="5.10" departSpeed="0.00" departDelay="0.00" arrival="259.00" arrivalLane="C2D2_0" arrivalPos="492.80" arrivalSpeed="15.34" duration="104.00" routeLength="1495.00" waitingTime="0.00" waitingCount="0" stopTime="0.00" timeLoss="9.91" rerouteNo="0" devices="tripinfo_f_1_0.0" vType="DEFAULT_VEHTYPE" speedFactor="1.15" vaporized=""/>
    <tripinfo id="f_1_3.0" depart="152.00" departLane="C0C1_0" departPos="5.10" departSpeed="0.00" departDelay="0.00" arrival="276.00" arrivalLane="C2C3_0" arrivalPos="492.80" arrivalSpeed="12.03" duration="124.00" routeLength="1495.00" waitingTime="0.00" waitingCount="0" stopTime="0.00" timeLoss="8.23" rerouteNo="0" devices="tripinfo_f_1_3.0" vType="DEFAULT_VEHTYPE" speedFactor="0.93" vaporized=""/>
    <tripinfo id="f_1_3.1" depart="160.00" departLane="C0C1_0" departPos="5.10" departSpeed="0.00" departDelay="0.00" arrival="278.00" arrivalLane="C2C3_0" arrivalPos="492.80" arrivalSpeed="13.26" duration="118.00" routeLength="1495.00" waitingTime="0.00" waitingCount="0" stopTime="0.00" timeLoss="10.35" rerouteNo="0" devices="tripinfo_f_1_3.1" vType="DEFAULT_VEHTYPE" speedFactor="1.01" vaporized=""/>
    <tripinfo id="f_1_3.2" depart="163.00" departLane="C0C1_0" departPos="5.10" departSpeed="0.00" departDelay="1.00" arrival="279.00" arrivalLane="C2C3_0" arrivalPos="492.80" arrivalSpeed="14.96" duration="116.00" routeLength="1495.00" waitingTime="0.00" waitingCount="0" stopTime="0.00" timeLoss="24.07" rerouteNo="0" devices="tripinfo_f_1_3.2" vType="DEFAULT_VEHTYPE" speedFactor="1.17" vaporized=""/>
    <tripinfo id="f_1_3.3" depart="166.00" departLane="C0C1_0" departPos="5.10" departSpeed="0.00" departDelay="3.00" arrival="281.00" arrivalLane="C2C3_0" arrivalPos="492.80" arrivalSpeed="13.05" duration="115.00" routeLength="1495.00" waitingTime="0.00" waitingCount="0" stopTime="0.00" timeLoss="9.17" rerouteNo="0" devices="tripinfo_f_1_3.3" vType="DEFAULT_VEHTYPE" speedFactor="1.02" vaporized=""/>
    <tripinfo id="f_1_3.4" depart="169.00" departLane="C0C1_0" departPos="5.10" departSpeed="0.00" departDelay="1.00" arrival="283.00" arrivalLane="C2C3_0" arrivalPos="492.80" arrivalSpeed="14.87" duration="114.00" routeLength="1495.00" waitingTime="0.00" waitingCount="0" stopTime="0.00" timeLoss="15.67" rerouteNo="0" devices="tripinfo_f_1_3.4" vType="DEFAULT_VEHTYPE" speedFactor="1.10" vaporized=""/>
    <tripinfo id="f_1_3.5" depart="178.00" departLane="C0C1_0" departPos="5.10" departSpeed="0.00" departDelay="0.00" arrival="285.00" arrivalLane="C2C3_0" arrivalPos="492.80" arrivalSpeed="15.09" duration="107.00" routeLength="1495.00" waitingTime="0.00" waitingCount="0" stopTime="0.00" timeLoss="7.74" rerouteNo="0" devices="tripinfo_f_1_3.5" vType="DEFAULT_VEHTYPE" speedFactor="1.09" vaporized=""/>
    <tripinfo id="f_1_1.0" depart="175.00" departLane="C4C3_0" departPos="5.10" departSpeed="0.00" departDelay="0.00" arrival="288.00" arrivalLane="C2C1_0" arrivalPos="492.80" arrivalSpeed="13.76" duration="113.00" routeLength="1495.00" waitingTime="0.00" waitingCount="0" stopTime="0.00" timeLoss="8.05" rerouteNo="0" devices="tripinfo_f_1_1.0" vType="DEFAULT_VEHTYPE" speedFactor="1.03" vaporized=""/>
    <tripinfo id="f_1_2.1" depart="163.00" departLane="E2D2_0" departPos="5.10" departSpeed="0.00" departDelay="0.00" arrival="294.00" arrivalLane="C2B2_0" arrivalPos="492.80" arrivalSpeed="13.60" duration="131.00" routeLength="1495.00" waitingTime="9.00" waitingCount="1" stopTime="0.00" timeLoss="22.54" rerouteNo="0" devices="tripinfo_f_1_2.1" vType="DEFAULT_VEHTYPE" speedFactor="0.99" vaporized=""/>
    <tripinfo id="f_1_1.1" depart="178.00" departLane="C4C3_0" departPos="5.10" departSpeed="0.00" departDelay="1.00" arrival="299.00" arrivalLane="C2C1_0" arrivalPos="492.80" arrivalSpeed="12.20" duration="121.00" routeLength="1495.00" waitingTime="0.00" waitingCount="0" stopTime="0.00" timeLoss="8.28" rerouteNo="0" devices="tripinfo_f_1_1.1" vType="DEFAULT_VEHTYPE" speedFactor="0.96" vaporized=""/>
    <tripinfo id="f_1_1.2" depart="181.00" departLane="C4C3_0" departPos="5.10" departSpeed="0.00" departDelay="3.00" arrival="301.00" arrivalLane="C2C1_0" arrivalPos="492.80" arrivalSpeed="13.48" duration="120.00" routeLength="1495.00" waitingTime="0.00" waitingCount="0" stopTime="0.00" timeLoss="15.60" rerouteNo="0" devices="tripinfo_f_1_1.2" vType="DEFAULT_VEHTYPE" speedFactor="1.04" vaporized=""/>
    <tripinfo id="f_1_2.2" depart="166.00" departLane="E2D2_0" departPos="5.10" departSpeed="0.00" departDelay="2.00" arrival="303.00" arrivalLane="C2B2_0" arrivalPos="492.80" arrivalSpeed="12.73" duration="137.00" routeLength="1495.00" waitingTime="8.00" waitingCount="2" stopTime="0.00" timeLoss="25.82" rerouteNo="0" devices="tripinfo_f_1_2.2" vType="DEFAULT_VEHTYPE" speedFactor="0.97" vaporized=""/>
    <tripinfo id="f_1_2.3" depart="169.00" departLane="E2D2_0" departPos="5.10" departSpeed="0.00" departDelay="1.00" arrival="305.00" arrivalLane="C2B2_0" arrivalPos="492.80" arrivalSpeed="15.67" duration="136.00" routeLength="1495.00" waitingTime="8.00" waitingCount="2" stopTime="0.00" timeLoss="43.83" rerouteNo="0" devices="tripinfo_f_1_2.3" vType="DEFAULT_VEHTYPE" speedFactor="1.18" vaporized=""/>
    <tripinfo id="f_1_2.4" depart="172.00" departLane="E2D2_0" departPos="5.10" departSpeed="0.00" departDelay="2.00" arrival="310.00" arrivalLane="C2B2_0" arrivalPos="492.80" arrivalSpeed="11.25" duration="138.00" routeLength="1495.00" waitingTime="0.00" waitingCount="0" stopTime="0.00" timeLoss="17.91" rerouteNo="0" devices="tripinfo_f_1_2.4" vType="DEFAULT_VEHTYPE" speedFactor="0.90" vaporized=""/>
    <tripinfo id="f_1_2.5" depart="177.00" departLane="E2D2_0" departPos="5.10" departSpeed="0.00" departDelay="0.00" arrival="311.00" arrivalLane="C2B2_0" arrivalPos="492.80" arrivalSpeed="13.32" duration="134.00" routeLength="1495.00" waitingTime="0.00" waitingCount="0" stopTime="0.00" timeLoss="35.41" rerouteNo="0" devices="tripinfo_f_1_2.5" vType="DEFAULT_VEHTYPE" speedFactor="1.09" vaporized=""/>
    <tripinfo id="f_1_2.6" depart="180.00" departLane="E2D2_0" departPos="5.10" departSpeed="0.00" departDelay="2.00" arrival="313.00" arrivalLane="C2B2_0" arrivalPos="492.80" arrivalSpeed="13.21" duration="133.00" routeLength="1495.00" waitingTime="0.00" waitingCount="0" stopTime="0.00" timeLoss="29.50" rerouteNo="0" devices="tripinfo_f_1_2.6" vType="DEFAULT_VEHTYPE" speedFactor="1.04" vaporized=""/>
    <tripinfo id="f_1_2.7" depart="183.00" departLane="E2D2_0" departPos="5.10" departSpeed="0.00" departDelay="0.00" arrival="315.00" arrivalLane="C2B2_0" arrivalPos="492.80" arrivalSpeed="13.63" duration="132.00" routeLength="1495.00" waitingTime="0.00" waitingCount="0" stopTime="0.00" timeLoss="23.43" rerouteNo="0" devices="tripinfo_f_1_2.7" vType="DEFAULT_VEHTYPE" speedFactor="1.00" vaporized=""/>
    <tripinfo id="f_1_2.8" depart="186.00" departLane="E2D2_0" departPos="5.10" departSpeed="0.00" departDelay="1.00" arrival="320.00" arrivalLane="C2B2_0" arrivalPos="492.80" arrivalSpeed="12.42" duration="134.00" routeLength="1495.00" waitingTime="0.00" waitingCount="0" stopTime="0.00" timeLoss="14.46" rerouteNo="0" devices="tripinfo_f_1_2.8" vType="DEFAULT_VEHTYPE" speedFactor="0.90" vaporized=""/>
    <tripinfo id="f_1_3.6" depart="190.00" departLane="C0C1_0" departPos="5.10" departSpeed="0.00" departDelay="0.00" arrival="329.00" arrivalLane="C2C3_0" arrivalPos="492.80" arrivalSpeed="11.12" duration="139.00" routeLength="1495.00" waitingTime="0.00" waitingCount="0" stopTime="0.00" timeLoss="15.70" rerouteNo="0" devices="tripinfo_f_1_3.6" vType="DEFAULT_VEHTYPE" speedFactor="0.88" vaporized=""/>
    <tripinfo id="f_1_2.9" depart="196.00" departLane="E2D2_0" departPos="5.10" departSpeed="0.00" departDelay="0.00" arrival="335.00" arrivalLane="C2B2_0" arrivalPos="492.80" arrivalSpeed="11.68" duration="139.00" routeLength="1495.00" waitingTime="0.00" waitingCount="0" stopTime="0.00" timeLoss="12.13" rerouteNo="0" devices="tripinfo_f_1_2.9" vType="DEFAULT_VEHTYPE" speedFactor="0.85" vaporized=""/>
    <tripinfo id="f_1_2.10" depart="199.00" departLane="E2D2_0" departPos="5.10" departSpeed="0.00" departDelay="0.00" arrival="338.00" arrivalLane="C2B2_0" arrivalPos="492.80" arrivalSpeed="10.92" duration="139.00" routeLength="1495.00" waitingTime="0.00" waitingCount="0" stopTime="0.00" timeLoss="12.42" rerouteNo="0" devices="tripinfo_f_1_2.10" vType="DEFAULT_VEHTYPE" speedFactor="0.85" vaporized=""/>
    <tripinfo id="f_2_1.0" depart="253.00" departLane="C4C3_0" departPos="5.10" departSpeed="0.00" departDelay="0.00" arrival="355.00" arrivalLane="C2C1_0" arrivalPos="492.80" arrivalSpeed="15.10" duration="102.00" routeLength="1495.00" waitingTime="0.00" waitingCount="0" stopTime="0.00" timeLoss="9.53" rerouteNo="0" devices="tripinfo_f_2_1.0" vType="DEFAULT_VEHTYPE" speedFactor="1.17" vaporized=""/>
    <tripinfo id="f_2_1.1" depart="256.00" departLane="C4C3_0" departPos="5.10" departSpeed="0.00" departDelay="1.00" arrival="370.00" arrivalLane="C2C1_0" arrivalPos="492.80" arrivalSpeed="13.99" duration="114.00" routeLength="1495.00" waitingTime="0.00" waitingCount="0" stopTime="0.00" timeLoss="7.94" rerouteNo="0" devices="tripinfo_f_2_1.1" vType="DEFAULT_VEHTYPE" speedFactor="1.02" vaporized=""/>
    <tripinfo id="f_2_3.0" depart="258.00" departLane="C0C1_0" departPos="5.10" departSpeed="0.00" departDelay="0.00" arrival="374.00" arrivalLane="C2C3_0" arrivalPos="492.80" arrivalSpeed="12.72" duration="116.00" routeLength="1495.00" waitingTime="0.00" waitingCount="0" stopTime="0.00" timeLoss="8.30" rerouteNo="0" devices="tripinfo_f_2_3.0" vType="DEFAULT_VEHTYPE" speedFactor="1.00" vaporized=""/>
    <tripinfo id="f_2_2.0" depart="258.00" departLane="E2D2_0" departPos="5.10" departSpeed="0.00" departDelay="0.00" arrival="375.00" arrivalLane="C2B2_0" arrivalPos="492.80" arrivalSpeed="14.76" duration="117.00" routeLength="1495.00" waitingTime="5.00" waitingCount="1" stopTime="0.00" timeLoss="18.48" rerouteNo="0" devices="tripinfo_f_2_2.0" vType="DEFAULT_VEHTYPE" speedFactor="1.10" vaporized=""/>
    <tripinfo id="f_2_3.1" depart="263.00" departLane="C0C1_0" departPos="5.10" departSpeed="0.00" departDelay="0.00" arrival="393.00" arrivalLane="C2C3_0" arrivalPos="492.80" arrivalSpeed="11.50" duration="130.00" routeLength="1495.00" waitingTime="0.00" waitingCount="0" stopTime="0.00" timeLoss="10.08" rerouteNo="0" devices="tripinfo_f_2_3.1" vType="DEFAULT_VEHTYPE" speedFactor="0.90" vaporized=""/>
    <tripinfo id="f_2_3.2" depart="266.00" departLane="C0C1_0" departPos="5.10" departSpeed="0.00" departDelay="1.00" arrival="395.00" arrivalLane="C2C3_0" arrivalPos="492.80" arrivalSpeed="14.81" duration="129.00" routeLength="1495.00" waitingTime="0.00" waitingCount="0" stopTime="0.00" timeLoss="34.19" rerouteNo="0" devices="tripinfo_f_2_3.2" vType="DEFAULT_VEHTYPE" speedFactor="1.14" vaporized=""/>
    <tripinfo id="f_2_3.3" depart="269.00" departLane="C0C1_0" departPos="5.10" departSpeed="0.00" departDelay="0.00" arrival="397.00" arrivalLane="C2C3_0" arrivalPos="492.80" arrivalSpeed="13.01" duration="128.00" routeLength="1495.00" waitingTime="0.00" waitingCount="0" stopTime="0.00" timeLoss="22.04" rerouteNo="0" devices="tripinfo_f_2_3.3" vType="DEFAULT_VEHTYPE" speedFactor="1.02" vaporized=""/>
    <tripinfo id="f_2_1.2" depart="283.00" departLane="C4C3_0" departPos="5.10" departSpeed="0.00" departDelay="0.00" arrival="397.00" arrivalLane="C2C1_0" arrivalPos="492.80" arrivalSpeed="13.02" duration="114.00" routeLength="1495.00" waitingTime="0.00" waitingCount="0" stopTime="0.00" timeLoss="8.01" rerouteNo="0" devices="tripinfo_f_2_1.2" vType="DEFAULT_VEHTYPE" speedFactor="1.02" vaporized=""/>
    <tripinfo id="f_2_3.4" depart="272.00" departLane="C0C1_0" departPos="5.10" departSpeed="0.00" departDelay="1.00" arrival="398.00" arrivalLane="C2C3_0" arrivalPos="492.80" arrivalSpeed="12.19" duration="126.00" routeLength="1495.00" waitingTime="0.00" waitingCount="0" stopTime="0.00" timeLoss="14.98" rerouteNo="0" devices="tripinfo_f_2_3.4" vType="DEFAULT_VEHTYPE" speedFactor="0.97" vaporized=""/>
    <tripinfo id="f_2_0.0" depart="277.00" departLane="A2B2_0" departPos="5.10" departSpeed="0.00" departDelay="0.00" arrival="400.00" arrivalLane="C2D2_0" arrivalPos="492.80" arrivalSpeed="13.83" duration="123.00" routeLength="1495.00" waitingTime="9.00" waitingCount="1" stopTime="0.00" timeLoss="22.87" rerouteNo="0" devices="tripinfo_f_2_0.0" vType="DEFAULT_VEHTYPE" speedFactor="1.08" vaporized=""/>
    <tripinfo id="f_2_3.5" depart="279.00" departLane="C0C1_0" departPos="5.10" departSpeed="0.00" departDelay="0.00" arrival="400.00" arrivalLane="C2C3_0" arrivalPos="492.80" arrivalSpeed="14.66" duration="121.00" routeLength="1495.00" waitingTime="0.00" waitingCount="0" stopTime="0.00" timeLoss="24.38" rerouteNo="0" devices="tripinfo_f_2_3.5" vType="DEFAULT_VEHTYPE" speedFactor="1.12" vaporized=""/>
    <tripinfo id="f_2_2.1" depart="262.00" departLane="E2D2_0" departPos="5.10" departSpeed="0.00" departDelay="0.00" arrival="402.00" arrivalLane="C2B2_0" arrivalPos="492.80" arrivalSpeed="12.98" duration="140.00" routeLength="1495.00" waitingTime="12.00" waitingCount="2" stopTime="0.00" timeLoss="31.79" rerouteNo="0" devices="tripinfo_f_2_2.1" vType="DEFAULT_VEHTYPE" speedFactor="1.00" vaporized=""/>
    <tripinfo id="f_2_3.6" depart="283.00" departLane="C0C1_0" departPos="5.10" departSpeed="0.00" departDelay="0.00" arrival="409.00" arrivalLane="C2C3_0" arrivalPos="492.80" arrivalSpeed="13.40" duration="126.00" routeLength="1495.00" waitingTime="3.00" waitingCount="1" stopTime="0.00" timeLoss="16.55" rerouteNo="0" devices="tripinfo_f_2_3.6" vType="DEFAULT_VEHTYPE" speedFactor="0.99" vaporized=""/>
    <tripinfo id="f_2_3.7" depart="286.00" departLane="C0C1_0" departPos="5.10" departSpeed="0.00" departDelay="1.00" arrival="418.00" arrivalLane="C2C3_0" arrivalPos="492.80" arrivalSpeed="12.55" duration="132.00" routeLength="1495.00" waitingTime="0.00" waitingCount="0" stopTime="0.00" timeLoss="12.69" rerouteNo="0" devices="tripinfo_f_2_3.7" vType="DEFAULT_VEHTYPE" speedFactor="0.91" vaporized=""/>
    <tripinfo id="f_2_3.8" depart="298.00" departLane="C0C1_0" departPos="5.10" departSpeed="0.00" departDelay="0.00" arrival="420.00" arrivalLane="C2C3_0" arrivalPos="492.80" arrivalSpeed="13.18" duration="122.00" routeLength="1495.00" waitingTime="0.00" waitingCount="0" stopTime="0.00" timeLoss="17.61" rerouteNo="0" devices="tripinfo_f_2_3.8" vType="DEFAULT_VEHTYPE" speedFactor="1.04" vaporized=""/>
    <tripinfo id="f_2_0.1" depart="284.00" departLane="A2B2_0" departPos="5.10" departSpeed="0.00" departDelay="0.00" arrival="421.00" arrivalLane="C2D2_0" arrivalPos="492.80" arrivalSpeed="11.98" duration="137.00" routeLength="1495.00" waitingTime="7.00" waitingCount="1" stopTime="0.00" timeLoss="21.71" rerouteNo="0" devices="tripinfo_f_2_0.1" vType="DEFAULT_VEHTYPE" speedFactor="0.94" vaporized=""/>
    <tripinfo id="f_2_0.2" depart="287.00" departLane="A2B2_0" departPos="5.10" departSpeed="0.00" departDelay="2.00" arrival="426.00" arrivalLane="C2D2_0" arrivalPos="492.80" arrivalSpeed="12.20" duration="139.00" routeLength="1495.00" waitingTime="2.00" waitingCount="1" stopTime="0.00" timeLoss="16.47" rerouteNo="0" devices="tripinfo_f_2_0.2" vType="DEFAULT_VEHTYPE" speedFactor="0.88" vaporized=""/>
    <tripinfo id="f_2_0.3" depart="298.00" departLane="A2B2_0" departPos="5.10" departSpeed="0.00" departDelay="0.00" arrival="428.00" arrivalLane="C2D2_0" arrivalPos="492.80" arrivalSpeed="12.45" duration="130.00" routeLength="1495.00" waitingTime="0.00" waitingCount="0" stopTime="0.00" timeLoss="11.53" rerouteNo="0" devices="tripinfo_f_2_0.3" vType="DEFAULT_VEHTYPE" speedFactor="0.91" vaporized=""/>
    <tripinfo id="f_3_0.0" depart="350.00" departLane="A2B2_0" departPos="5.10" departSpeed="0.00" departDelay="0.00" arrival="466.00" arrivalLane="C2D2_0" arrivalPos="492.80" arrivalSpeed="14.01" duration="116.00" routeLength="1495.00" waitingTime="0.00" waitingCount="0" stopTime="0.00" timeLoss="10.40" rerouteNo="0" devices="tripinfo_f_3_0.0" vType="DEFAULT_VEHTYPE" speedFactor="1.02" vaporized=""/>
    <tripinfo id="f_3_0.1" depart="353.00" departLane="A2B2_0" departPos="5.10" departSpeed="0.00" departDelay="0.00" arrival="469.00" arrivalLane="C2D2_0" arrivalPos="492.80" arrivalSpeed="13.94" duration="116.00" routeLength="1495.00" waitingTime="0.00" waitingCount="0" stopTime="0.00" timeLoss="10.41" rerouteNo="0" devices="tripinfo_f_3_0.1" vType="DEFAULT_VEHTYPE" speedFactor="1.02" vaporized=""/>