<?xml version="1.0" encoding="UTF-8"?>

<!-- generated on 2024-08-01 09:41:18 by Eclipse SUMO sumo Version 1.17.0
<configuration xmlns:xsi="http://www.w3.org/2001/XMLSchema-instance" xsi:noNamespaceSchemaLocation="http://sumo.dlr.de/xsd/sumoConfiguration.xsd">

    <input>
        <net-file value="single_no_lights.net.xml"/>
        <route-files value="single_4.rou.xml"/>
    </input>

    <output>
        <summary-output value="control_summaries\summary_single_no_lights_4.xml"/>
        <tripinfo-output value="control_summaries\tripinfos_single_no_lights_4.xml"/>
    </output>

    <processing>
        <time-to-teleport value="-1"/>
    </processing>

    <traci_server>
        <remote-port value="64958"/>
    </traci_server>

</configuration>
-->

<tripinfos xmlns:xsi="http://www.w3.org/2001/XMLSchema-instance" xsi:noNamespaceSchemaLocation="http://sumo.dlr.de/xsd/tripinfo_file.xsd">
    <tripinfo id="f_0_0.0" depart="2.00" departLane="A2B2_0" departPos="5.10" departSpeed="0.00" departDelay="0.00" arrival="114.00" arrivalLane="C2D2_0" arrivalPos="492.80" arrivalSpeed="14.16" duration="112.00" routeLength="1495.00" waitingTime="0.00" waitingCount="0" stopTime="0.00" timeLoss="9.64" rerouteNo="0" devices="tripinfo_f_0_0.0" vType="DEFAULT_VEHTYPE" speedFactor="1.06" vaporized=""/>
    <tripinfo id="f_0_0.1" depart="5.00" departLane="A2B2_0" departPos="5.10" departSpeed="0.00" departDelay="0.00" arrival="130.00" arrivalLane="C2D2_0" arrivalPos="492.80" arrivalSpeed="12.60" duration="125.00" routeLength="1495.00" waitingTime="0.00" waitingCount="0" stopTime="0.00" timeLoss="10.22" rerouteNo="0" devices="tripinfo_f_0_0.1" vType="DEFAULT_VEHTYPE" speedFactor="0.94" vaporized=""/>
    <tripinfo id="f_0_0.2" depart="8.00" departLane="A2B2_0" departPos="5.10" departSpeed="0.00" departDelay="1.00" arrival="132.00" arrivalLane="C2D2_0" arrivalPos="492.80" arrivalSpeed="13.48" duration="124.00" routeLength="1495.00" waitingTime="0.00" waitingCount="0" stopTime="0.00" timeLoss="16.99" rerouteNo="0" devices="tripinfo_f_0_0.2" vType="DEFAULT_VEHTYPE" speedFactor="1.01" vaporized=""/>
    <tripinfo id="f_0_0.3" depart="11.00" departLane="A2B2_0" departPos="5.10" departSpeed="0.00" departDelay="1.00" arrival="134.00" arrivalLane="C2D2_0" arrivalPos="492.80" arrivalSpeed="14.00" duration="123.00" routeLength="1495.00" waitingTime="0.00" waitingCount="0" stopTime="0.00" timeLoss="22.84" rerouteNo="0" devices="tripinfo_f_0_0.3" vType="DEFAULT_VEHTYPE" speedFactor="1.08" vaporized=""/>
    <tripinfo id="f_0_1.0" depart="24.00" departLane="C4C3_0" departPos="5.10" departSpeed="0.00" departDelay="0.00" arrival="135.00" arrivalLane="C2C1_0" arrivalPos="492.80" arrivalSpeed="13.69" duration="111.00" routeLength="1495.00" waitingTime="0.00" waitingCount="0" stopTime="0.00" timeLoss="7.66" rerouteNo="0" devices="tripinfo_f_0_1.0" vType="DEFAULT_VEHTYPE" speedFactor="1.05" vaporized=""/>
    <tripinfo id="f_0_0.4" depart="16.00" departLane="A2B2_0" departPos="5.10" departSpeed="0.00" departDelay="0.00" arrival="140.00" arrivalLane="C2D2_0" arrivalPos="492.80" arrivalSpeed="13.16" duration="124.00" routeLength="1495.00" waitingTime="1.00" waitingCount="1" stopTime="0.00" timeLoss="19.20" rerouteNo="0" devices="tripinfo_f_0_0.4" vType="DEFAULT_VEHTYPE" speedFactor="1.03" vaporized=""/>
    <tripinfo id="f_0_1.1" depart="27.00" departLane="C4C3_0" departPos="5.10" departSpeed="0.00" departDelay="1.00" arrival="150.00" arrivalLane="C2C1_0" arrivalPos="492.80" arrivalSpeed="11.90" duration="123.00" routeLength="1495.00" waitingTime="0.00" waitingCount="0" stopTime="0.00" timeLoss="8.24" rerouteNo="0" devices="tripinfo_f_0_1.1" vType="DEFAULT_VEHTYPE" speedFactor="0.94" vaporized=""/>
    <tripinfo id="f_0_0.5" depart="20.00" departLane="A2B2_0" departPos="5.10" departSpeed="0.00" departDelay="0.00" arrival="160.00" arrivalLane="C2D2_0" arrivalPos="492.80" arrivalSpeed="11.39" duration="140.00" routeLength="1495.00" waitingTime="0.00" waitingCount="0" stopTime="0.00" timeLoss="10.31" rerouteNo="0" devices="tripinfo_f_0_0.5" vType="DEFAULT_VEHTYPE" speedFactor="0.83" vaporized=""/>
    <tripinfo id="f_0_0.6" depart="25.00" departLane="A2B2_0" departPos="5.10" departSpeed="0.00" departDelay="0.00" arrival="162.00" arrivalLane="C2D2_0" arrivalPos="492.80" arrivalSpeed="12.03" duration="137.00" routeLength="1495.00" waitingTime="0.00" waitingCount="0" stopTime="0.00" timeLoss="15.10" rerouteNo="0" devices="tripinfo_f_0_0.6" vType="DEFAULT_VEHTYPE" speedFactor="0.89" vaporized=""/>
    <tripinfo id="f_0_0.7" depart="29.00" departLane="A2B2_0" departPos="5.10" departSpeed="0.00" departDelay="0.00" arrival="164.00" arrivalLane="C2D2_0" arrivalPos="492.80" arrivalSpeed="14.14" duration="135.00" routeLength="1495.00" waitingTime="0.00" waitingCount="0" stopTime="0.00" timeLoss="35.51" rerouteNo="0" devices="tripinfo_f_0_0.7" vType="DEFAULT_VEHTYPE" speedFactor="1.09" vaporized=""/>
    <tripinfo id="f_0_1.2" depart="30.00" departLane="C4C3_0" departPos="5.10" departSpeed="0.00" departDelay="3.00" arrival="166.00" arrivalLane="C2C1_0" arrivalPos="492.80" arrivalSpeed="11.58" duration="136.00" routeLength="1495.00" waitingTime="0.00" waitingCount="0" stopTime="0.00" timeLoss="9.63" rerouteNo="0" devices="tripinfo_f_0_1.2" vType="DEFAULT_VEHTYPE" speedFactor="0.86" vaporized=""/>
    <tripinfo id="f_0_0.8" depart="32.00" departLane="A2B2_0" departPos="5.10" departSpeed="0.00" departDelay="0.00" arrival="166.00" arrivalLane="C2D2_0" arrivalPos="492.80" arrivalSpeed="14.30" duration="134.00" routeLength="1495.00" waitingTime="7.00" waitingCount="1" stopTime="0.00" timeLoss="37.61" rerouteNo="0" devices="tripinfo_f_0_0.8" vType="DEFAULT_VEHTYPE" speedFactor="1.12" vaporized=""/>
    <tripinfo id="f_0_1.3" depart="33.00" departLane="C4C3_0" departPos="5.10" departSpeed="0.00" departDelay="4.00" arrival="167.00" arrivalLane="C2C1_0" arrivalPos="492.80" arrivalSpeed="13.74" duration="134.00" routeLength="1495.00" waitingTime="0.00" waitingCount="0" stopTime="0.00" timeLoss="29.01" rerouteNo="0" devices="tripinfo_f_0_1.3" vType="DEFAULT_VEHTYPE" speedFactor="1.03" vaporized=""/>
    <tripinfo id="f_0_1.4" depart="36.00" departLane="C4C3_0" departPos="5.10" departSpeed="0.00" departDelay="5.00" arrival="169.00" arrivalLane="C2C1_0" arrivalPos="492.80" arrivalSpeed="14.54" duration="133.00" routeLength="1495.00" waitingTime="0.00" waitingCount="0" stopTime="0.00" timeLoss="29.76" rerouteNo="0" devices="tripinfo_f_0_1.4" vType="DEFAULT_VEHTYPE" speedFactor="1.05" vaporized=""/>
    <tripinfo id="f_0_1.5" depart="42.00" departLane="C4C3_0" departPos="5.10" departSpeed="0.00" departDelay="0.00" arrival="171.00" arrivalLane="C2C1_0" arrivalPos="492.80" arrivalSpeed="13.66" duration="129.00" routeLength="1495.00" waitingTime="0.00" waitingCount="0" stopTime="0.00" timeLoss="22.66" rerouteNo="0" devices="tripinfo_f_0_1.5" vType="DEFAULT_VEHTYPE" speedFactor="1.02" vaporized=""/>
    <tripinfo id="f_0_2.0" depart="40.00" departLane="E2D2_0" departPos="5.10" departSpeed="0.00" departDelay="0.00" arrival="172.00" arrivalLane="C2B2_0" arrivalPos="492.80" arrivalSpeed="11.92" duration="132.00" routeLength="1495.00" waitingTime="2.00" waitingCount="1" stopTime="0.00" timeLoss="16.82" rerouteNo="0" devices="tripinfo_f_0_2.0" vType="DEFAULT_VEHTYPE" speedFactor="0.94" vaporized=""/>
    <tripinfo id="f_0_1.6" depart="45.00" departLane="C4C3_0" departPos="5.10" departSpeed="0.00" departDelay="0.00" arrival="178.00" arrivalLane="C2C1_0" arrivalPos="492.80" arrivalSpeed="11.49" duration="133.00" routeLength="1495.00" waitingTime="0.00" waitingCount="0" stopTime="0.00" timeLoss="9.34" rerouteNo="0" devices="tripinfo_f_0_1.6" vType="DEFAULT_VEHTYPE" speedFactor="0.87" vaporized=""/>
    <tripinfo id="f_0_1.7" depart="51.00" departLane="C4C3_0" departPos="5.10" departSpeed="0.00" departDelay="0.00" arrival="180.00" arrivalLane="C2C1_0" arrivalPos="492.80" arrivalSpeed="12.91" duration="129.00" routeLength="1495.00" waitingTime="0.00" waitingCount="0" stopTime="0.00" timeLoss="12.76" rerouteNo="0" devices="tripinfo_f_0_1.7" vType="DEFAULT_VEHTYPE" speedFactor="0.93" vaporized=""/>
    <tripinfo id="f_0_1.8" depart="56.00" departLane="C4C3_0" departPos="5.10" departSpeed="0.00" departDelay="0.00" arrival="181.00" arrivalLane="C2C1_0" arrivalPos="492.80" arrivalSpeed="15.77" duration="125.00" routeLength="1495.00" waitingTime="0.00" waitingCount="0" stopTime="0.00" timeLoss="33.56" rerouteNo="0" devices="tripinfo_f_0_1.8" vType="DEFAULT_VEHTYPE" speedFactor="1.18" vaporized=""/>
    <tripinfo id="f_0_1.9" depart="59.00" departLane="C4C3_0" departPos="5.10" departSpeed="0.00" departDelay="1.00" arrival="183.00" arrivalLane="C2C1_0" arrivalPos="492.80" arrivalSpeed="14.83" duration="124.00" routeLength="1495.00" waitingTime="0.00" waitingCount="0" stopTime="0.00" timeLoss="30.32" rerouteNo="0" devices="tripinfo_f_0_1.9" vType="DEFAULT_VEHTYPE" speedFactor="1.15" vaporized=""/>
    <tripinfo id="f_0_1.10" depart="62.00" departLane="C4C3_0" departPos="5.10" departSpeed="0.00" departDelay="2.00" arrival="185.00" arrivalLane="C2C1_0" arrivalPos="492.80" arrivalSpeed="15.95" duration="123.00" routeLength="1495.00" waitingTime="0.00" waitingCount="0" stopTime="0.00" timeLoss="30.31" rerouteNo="0" devices="tripinfo_f_0_1.10" vType="DEFAULT_VEHTYPE" speedFactor="1.17" vaporized=""/>
    <tripinfo id="f_0_1.11" depart="69.00" departLane="C4C3_0" departPos="5.10" departSpeed="0.00" departDelay="0.00" arrival="186.00" arrivalLane="C2C1_0" arrivalPos="492.80" arrivalSpeed="15.13" duration="117.00" routeLength="1495.00" waitingTime="2.00" waitingCount="1" stopTime="0.00" timeLoss="25.59" rerouteNo="0" devices="tripinfo_f_0_1.11" vType="DEFAULT_VEHTYPE" speedFactor="1.18" vaporized=""/>
    <tripinfo id="f_0_3.0" depart="80.00" departLane="C0C1_0" departPos="5.10" departSpeed="0.00" departDelay="0.00" arrival="186.00" arrivalLane="C2C3_0" arrivalPos="492.80" arrivalSpeed="15.10" duration="106.00" routeLength="1495.00" waitingTime="0.00" waitingCount="0" stopTime="0.00" timeLoss="6.95" rerouteNo="0" devices="tripinfo_f_0_3.0" vType="DEFAULT_VEHTYPE" speedFactor="1.09" vaporized=""/>
    <tripinfo id="f_0_2.1" depart="43.00" departLane="E2D2_0" departPos="5.10" departSpeed="0.00" departDelay="1.00" arrival="187.00" arrivalLane="C2B2_0" arrivalPos="492.80" arrivalSpeed="13.61" duration="144.00" routeLength="1495.00" waitingTime="14.00" waitingCount="2" stopTime="0.00" timeLoss="36.84" rerouteNo="0" devices="tripinfo_f_0_2.1" vType="DEFAULT_VEHTYPE" speedFactor="1.01" vaporized=""/>
    <tripinfo id="f_0_0.9" depart="35.00" departLane="A2B2_0" departPos="5.10" departSpeed="0.00" departDelay="2.00" arrival="188.00" arrivalLane="C2D2_0" arrivalPos="492.80" arrivalSpeed="12.73" duration="153.00" routeLength="1495.00" waitingTime="19.00" waitingCount="2" stopTime="0.00" timeLoss="43.90" rerouteNo="0" devices="tripinfo_f_0_0.9" vType="DEFAULT_VEHTYPE" speedFactor="0.99" vaporized=""/>
    <tripinfo id="f_0_1.12" depart="73.00" departLane="C4C3_0" departPos="5.10" departSpeed="0.00" departDelay="0.00" arrival="188.00" arrivalLane="C2C1_0" arrivalPos="492.80" arrivalSpeed="13.90" duration="115.00" routeLength="1495.00" waitingTime="0.00" waitingCount="0" stopTime="0.00" timeLoss="10.48" rerouteNo="0" devices="tripinfo_f_0_1.12" vType="DEFAULT_VEHTYPE" speedFactor="1.03" vaporized=""/>
    <tripinfo id="f_0_1.13" depart="77.00" departLane="C4C3_0" departPos="5.10" departSpeed="0.00" departDelay="0.00" arrival="190.00" arrivalLane="C2C1_0" arrivalPos="492.80" arrivalSpeed="13.97" duration="113.00" routeLength="1495.00" waitingTime="0.00" waitingCount="0" stopTime="0.00" timeLoss="14.00" rerouteNo="0" devices="tripinfo_f_0_1.13" vType="DEFAULT_VEHTYPE" speedFactor="1.09" vaporized=""/>
    <tripinfo id="f_0_1.14" depart="80.00" departLane="C4C3_0" departPos="5.10" departSpeed="0.00" departDelay="0.00" arrival="192.00" arrivalLane="C2C1_0" arrivalPos="492.80" arrivalSpeed="14.20" duration="112.00" routeLength="1495.00" waitingTime="0.00" waitingCount="0" stopTime="0.00" timeLoss="8.27" rerouteNo="0" devices="tripinfo_f_0_1.14" vType="DEFAULT_VEHTYPE" speedFactor="1.04" vaporized=""/>
    <tripinfo id="f_0_0.10" depart="38.00" departLane="A2B2_0" departPos="5.10" departSpeed="0.00" departDelay="4.00" arrival="200.00" arrivalLane="C2D2_0" arrivalPos="492.80" arrivalSpeed="12.03" duration="162.00" routeLength="1495.00" waitingTime="21.00" waitingCount="3" stopTime="0.00" timeLoss="45.05" rerouteNo="0" devices="tripinfo_f_0_0.10" vType="DEFAULT_VEHTYPE" speedFactor="0.93" vaporized=""/>
    <tripinfo id="f_0_2.2" depart="46.00" departLane="E2D2_0" departPos="5.10" departSpeed="0.00" departDelay="2.00" arrival="201.00" arrivalLane="C2B2_0" arrivalPos="492.80" arrivalSpeed="11.25" duration="155.00" routeLength="1495.00" waitingTime="17.00" waitingCount="2" stopTime="0.00" timeLoss="33.72" rerouteNo="0" devices="tripinfo_f_0_2.2" vType="DEFAULT_VEHTYPE" speedFactor="0.89" vaporized=""/>
    <tripinfo id="f_0_2.3" depart="49.00" departLane="E2D2_0" departPos="5.10" departSpeed="0.00" departDelay="4.00" arrival="203.00" arrivalLane="C2B2_0" arrivalPos="492.80" arrivalSpeed="11.46" duration="154.00" routeLength="1495.00" waitingTime="14.00" waitingCount="2" stopTime="0.00" timeLoss="36.17" rerouteNo="0" devices="tripinfo_f_0_2.3" vType="DEFAULT_VEHTYPE" speedFactor="0.92" vaporized=""/>
    <tripinfo id="f_0_0.11" depart="41.00" departLane="A2B2_0" departPos="5.10" departSpeed="0.00" departDelay="2.00" arrival="204.00" arrivalLane="C2D2_0" arrivalPos="492.80" arrivalSpeed="11.74" duration="163.00" routeLength="1495.00" waitingTime="14.00" waitingCount="3" stopTime="0.00" timeLoss="40.11" rerouteNo="0" devices="tripinfo_f_0_0.11" vType="DEFAULT_VEHTYPE" speedFactor="0.88" vaporized=""/>
    <tripinfo id="f_0_2.4" depart="52.00" departLane="E2D2_0" departPos="5.10" departSpeed="0.00" departDelay="2.00" arrival="205.00" arrivalLane="C2B2_0" arrivalPos="492.80" arrivalSpeed="15.54" duration="153.00" routeLength="1495.00" waitingTime="13.00" waitingCount="2" stopTime="0.00" timeLoss="57.03" rerouteNo="0" devices="tripinfo_f_0_2.4" vType="DEFAULT_VEHTYPE" speedFactor="1.13" vaporized=""/>
    <tripinfo id="f_0_0.12" depart="44.00" departLane="A2B2_0" departPos="5.10" departSpeed="0.00" departDelay="4.00" arrival="206.00" arrivalLane="C2D2_0" arrivalPos="492.80" arrivalSpeed="12.48" duration="162.00" routeLength="1495.00" waitingTime="11.00" waitingCount="2" stopTime="0.00" timeLoss="47.10" rerouteNo="0" devices="tripinfo_f_0_0.12" vType="DEFAULT_VEHTYPE" speedFactor="0.94" vaporized=""/>
    <tripinfo id="f_0_2.5" depart="65.00" departLane="E2D2_0" departPos="5.10" departSpeed="0.00" departDelay="0.00" arrival="206.00" arrivalLane="C2B2_0" arrivalPos="492.80" arrivalSpeed="13.39" duration="141.00" routeLength="1495.00" waitingTime="12.00" waitingCount="2" stopTime="0.00" timeLoss="35.39" rerouteNo="0" devices="tripinfo_f_0_2.5" vType="DEFAULT_VEHTYPE" speedFactor="1.02" vaporized=""/>
    <tripinfo id="f_0_0.13" depart="47.00" departLane="A2B2_0" departPos="5.10" departSpeed="0.00" departDelay="6.00" arrival="208.00" arrivalLane="C2D2_0" arrivalPos="492.80" arrivalSpeed="15.35" duration="161.00" routeLength="1495.00" waitingTime="9.00" waitingCount="1" stopTime="0.00" timeLoss="67.17" rerouteNo="0" devices="tripinfo_f_0_0.13" vType="DEFAULT_VEHTYPE" speedFactor="1.16" vaporized=""/>
    <tripinfo id="f_0_1.15" depart="83.00" departLane="C4C3_0" departPos="5.10" departSpeed="0.00" departDelay="2.00" arrival="212.00" arrivalLane="C2C1_0" arrivalPos="492.80" arrivalSpeed="11.73" duration="129.00" routeLength="1495.00" waitingTime="0.00" waitingCount="0" stopTime="0.00" timeLoss="8.92" rerouteNo="0" devices="tripinfo_f_0_1.15" vType="DEFAULT_VEHTYPE" speedFactor="0.90" vaporized=""/>
    <tripinfo id="f_0_3.1" depart="83.00" departLane="C0C1_0" departPos="5.10" departSpeed="0.00" departDelay="2.00" arrival="220.00" arrivalLane="C2C3_0" arrivalPos="492.80" arrivalSpeed="11.21" duration="137.00" routeLength="1495.00" waitingTime="0.00" waitingCount="0" stopTime="0.00" timeLoss="10.13" rerouteNo="0" devices="tripinfo_f_0_3.1" vType="DEFAULT_VEHTYPE" speedFactor="0.85" vaporized=""/>
    <tripinfo id="f_0_3.2" depart="86.00" departLane="C0C1_0" departPos="5.10" departSpeed="0.00" departDelay="1.00" arrival="222.00" arrivalLane="C2C3_0" arrivalPos="492.80" arrivalSpeed="12.69" duration="136.00" routeLength="1495.00" waitingTime="0.00" waitingCount="0" stopTime="0.00" timeLoss="28.03" rerouteNo="0" devices="tripinfo_f_0_3.2" vType="DEFAULT_VEHTYPE" speedFactor="1.00" vaporized=""/>
    <tripinfo id="f_0_1.16" depart="86.00" departLane="C4C3_0" departPos="5.10" departSpeed="0.00" departDelay="3.00" arrival="223.00" arrivalLane="C2C1_0" arrivalPos="492.80" arrivalSpeed="11.05" duration="137.00" routeLength="1495.00" waitingTime="0.00" waitingCount="0" stopTime="0.00" timeLoss="10.30" rerouteNo="0" devices="tripinfo_f_0_1.16" vType="DEFAULT_VEHTYPE" speedFactor="0.85" vaporized=""/>
    <tripinfo id="f_0_3.3" depart="89.00" departLane="C0C1_0" departPos="5.10" departSpeed="0.00" departDelay="3.00" arrival="223.00" arrivalLane="C2C3_0" arrivalPos="492.80" arrivalSpeed="13.41" duration="134.00" routeLength="1495.00" waitingTime="0.00" waitingCount="0" stopTime="0.00" timeLoss="25.85" rerouteNo="0" devices="tripinfo_f_0_3.3" vType="DEFAULT_VEHTYPE" speedFactor="1.00" vaporized=""/>
    <tripinfo id="f_0_1.17" depart="89.00" departLane="C4C3_0" departPos="5.10" departSpeed="0.00" departDelay="4.00" arrival="224.00" arrivalLane="C2C1_0" arrivalPos="492.80" arrivalSpeed="13.51" duration="135.00" routeLength="1495.00" waitingTime="0.00" waitingCount="0" stopTime="0.00" timeLoss="36.57" rerouteNo="0" devices="tripinfo_f_0_1.17" vType="DEFAULT_VEHTYPE" speedFactor="1.10" vaporized=""/>
    <tripinfo id="f_0_3.4" depart="92.00" departLane="C0C1_0" departPos="5.10" departSpeed="0.00" departDelay="5.00" arrival="225.00" arrivalLane="C2C3_0" arrivalPos="492.80" arrivalSpeed="14.92" duration="133.00" routeLength="1495.00" waitingTime="0.00" waitingCount="0" stopTime="0.00" timeLoss="38.25" rerouteNo="0" devices="tripinfo_f_0_3.4" vType="DEFAULT_VEHTYPE" speedFactor="1.14" vaporized=""/>
    <tripinfo id="f_0_1.18" depart="92.00" departLane="C4C3_0" departPos="5.10" departSpeed="0.00" departDelay="5.00" arrival="226.00" arrivalLane="C2C1_0" arrivalPos="492.80" arrivalSpeed="12.07" duration="134.00" routeLength="1495.00" waitingTime="0.00" waitingCount="0" stopTime="0.00" timeLoss="13.95" rerouteNo="0" devices="tripinfo_f_0_1.18" vType="DEFAULT_VEHTYPE" speedFactor="0.90" vaporized=""/>
    <tripinfo id="f_0_3.5" depart="95.00" departLane="C0C1_0" departPos="5.10" departSpeed="0.00" departDelay="6.00" arrival="227.00" arrivalLane="C2C3_0" arrivalPos="492.80" arrivalSpeed="13.32" duration="132.00" routeLength="1495.00" waitingTime="0.00" waitingCount="0" stopTime="0.00" timeLoss="20.48" rerouteNo="0" devices="tripinfo_f_0_3.5" vType="DEFAULT_VEHTYPE" speedFactor="0.97" vaporized=""/>
    <tripinfo id="f_0_1.19" depart="95.00" departLane="C4C3_0" departPos="5.10" departSpeed="0.00" departDelay="5.00" arrival="228.00" arrivalLane="C2C1_0" arrivalPos="492.80" arrivalSpeed="14.89" duration="133.00" routeLength="1495.00" waitingTime="0.00" waitingCount="0" stopTime="0.00" timeLoss="32.89" rerouteNo="0" devices="tripinfo_f_0_1.19" vType="DEFAULT_VEHTYPE" speedFactor="1.08" vaporized=""/>
    <tripinfo id="f_0_3.6" depart="98.00" departLane="C0C1_0" departPos="5.10" departSpeed="0.00" departDelay="8.00" arrival="229.00" arrivalLane="C2C3_0" arrivalPos="492.80" arrivalSpeed="14.61" duration="131.00" routeLength="1495.00" waitingTime="0.00" waitingCount="0" stopTime="0.00" timeLoss="34.05" rerouteNo="0" devices="tripinfo_f_0_3.6" vType="DEFAULT_VEHTYPE" speedFactor="1.12" vaporized=""/>
    <tripinfo id="f_0_3.7" depart="101.00" departLane="C0C1_0" departPos="5.10" departSpeed="0.00" departDelay="10.00" arrival="230.00" arrivalLane="C2C3_0" arrivalPos="492.80" arrivalSpeed="13.13" duration="129.00" routeLength="1495.00" waitingTime="0.00" waitingCount="0" stopTime="0.00" timeLoss="22.93" rerouteNo="0" devices="tripinfo_f_0_3.7" vType="DEFAULT_VEHTYPE" speedFactor="1.02" vaporized=""/>
    <tripinfo id="f_0_1.20" depart="98.00" departLane="C4C3_0" departPos="5.10" departSpeed="0.00" departDelay="6.00" arrival="230.00" arrivalLane="C2C1_0" arrivalPos="492.80" arrivalSpeed="13.67" duration="132.00" routeLength="1495.00" waitingTime="0.00" waitingCount="0" stopTime="0.00" timeLoss="22.02" rerouteNo="0" devices="tripinfo_f_0_1.20" vType="DEFAULT_VEHTYPE" speedFactor="0.99" vaporized=""/>
    <tripinfo id="f_0_1.21" depart="101.00" departLane="C4C3_0" departPos="5.10" departSpeed="0.00" departDelay="6.00" arrival="232.00" arrivalLane="C2C1_0" arrivalPos="492.80" arrivalSpeed="11.64" duration="131.00" routeLength="1495.00" waitingTime="0.00" waitingCount="0" stopTime="0.00" timeLoss="11.39" rerouteNo="0" devices="tripinfo_f_0_1.21" vType="DEFAULT_VEHTYPE" speedFactor="0.91" vaporized=""/>
    <tripinfo id="f_0_1.22" depart="104.00" departLane="C4C3_0" departPos="5.10" departSpeed="0.00" departDelay="8.00" arrival="233.00" arrivalLane="C2C1_0" arrivalPos="492.80" arrivalSpeed="12.99" duration="129.00" routeLength="1495.00" waitingTime="0.00" waitingCount="0" stopTime="0.00" timeLoss="23.44" rerouteNo="0" devices="tripinfo_f_0_1.22" vType="DEFAULT_VEHTYPE" speedFactor="1.02" vaporized=""/>
    <tripinfo id="f_0_3.8" depart="104.00" departLane="C0C1_0" departPos="5.10" departSpeed="0.00" departDelay="9.00" arrival="234.00" arrivalLane="C2C3_0" arrivalPos="492.80" arrivalSpeed="12.34" duration="130.00" routeLength="1495.00" waitingTime="0.00" waitingCount="0" stopTime="0.00" timeLoss="11.55" rerouteNo="0" devices="tripinfo_f_0_3.8" vType="DEFAULT_VEHTYPE" speedFactor="0.91" vaporized=""/>
    <tripinfo id="f_0_0.14" depart="50.00" departLane="A2B2_0" departPos="5.10" departSpeed="0.00" departDelay="6.00" arrival="235.00" arrivalLane="C2D2_0" arrivalPos="492.80" arrivalSpeed="12.77" duration="185.00" routeLength="1495.00" waitingTime="33.00" waitingCount="2" stopTime="0.00" timeLoss="74.49" rerouteNo="0" devices="tripinfo_f_0_0.14" vType="DEFAULT_VEHTYPE" speedFactor="0.97" vaporized=""/>
    <tripinfo id="f_0_3.9" depart="107.00" departLane="C0C1_0" departPos="5.10" departSpeed="0.00" departDelay="11.00" arrival="235.00" arrivalLane="C2C3_0" arrivalPos="492.80" arrivalSpeed="13.54" duration="128.00" routeLength="1495.00" waitingTime="0.00" waitingCount="0" stopTime="0.00" timeLoss="22.68" rerouteNo="0" devices="tripinfo_f_0_3.9" vType="DEFAULT_VEHTYPE" speedFactor="1.02" vaporized=""/>
    <tripinfo id="f_0_2.6" depart="68.00" departLane="E2D2_0" departPos="5.10" departSpeed="0.00" departDelay="1.00" arrival="238.00" arrivalLane="C2B2_0" arrivalPos="492.80" arrivalSpeed="12.24" duration="170.00" routeLength="1495.00" waitingTime="32.00" waitingCount="3" stopTime="0.00" timeLoss="58.86" rerouteNo="0" devices="tripinfo_f_0_2.6" vType="DEFAULT_VEHTYPE" speedFactor="0.97" vaporized=""/>
    <tripinfo id="f_0_2.7" depart="79.00" departLane="E2D2_0" departPos="5.10" departSpeed="0.00" departDelay="0.00" arrival="240.00" arrivalLane="C2B2_0" arrivalPos="492.80" arrivalSpeed="13.56" duration="161.00" routeLength="1495.00" waitingTime="27.00" waitingCount="2" stopTime="0.00" timeLoss="56.40" rerouteNo="0" devices="tripinfo_f_0_2.7" vType="DEFAULT_VEHTYPE" speedFactor="1.04" vaporized=""/>
    <tripinfo id="f_0_0.15" depart="53.00" departLane="A2B2_0" departPos="5.10" departSpeed="0.00" departDelay="8.00" arrival="244.00" arrivalLane="C2D2_0" arrivalPos="492.80" arrivalSpeed="10.73" duration="191.00" routeLength="1495.00" waitingTime="31.00" waitingCount="2" stopTime="0.00" timeLoss="60.61" rerouteNo="0" devices="tripinfo_f_0_0.15" vType="DEFAULT_VEHTYPE" speedFactor="0.83" vaporized=""/>
    <tripinfo id="f_0_0.16" depart="56.00" departLane="A2B2_0" departPos="5.10" departSpeed="0.00" departDelay="9.00" arrival="246.00" arrivalLane="C2D2_0" arrivalPos="492.80" arrivalSpeed="11.93" duration="190.00" routeLength="1495.00" waitingTime="30.00" waitingCount="2" stopTime="0.00" timeLoss="76.20" rerouteNo="0" devices="tripinfo_f_0_0.16" vType="DEFAULT_VEHTYPE" speedFactor="0.95" vaporized=""/>
    <tripinfo id="f_0_2.8" depart="82.00" departLane="E2D2_0" departPos="5.10" departSpeed="0.00" departDelay="1.00" arrival="246.00" arrivalLane="C2B2_0" arrivalPos="492.80" arrivalSpeed="11.83" duration="164.00" routeLength="1495.00" waitingTime="21.00" waitingCount="1" stopTime="0.00" timeLoss="41.07" rerouteNo="0" devices="tripinfo_f_0_2.8" vType="DEFAULT_VEHTYPE" speedFactor="0.88" vaporized=""/>
    <tripinfo id="f_0_0.17" depart="59.00" departLane="A2B2_0" departPos="5.10" departSpeed="0.00" departDelay="0.00" arrival="248.00" arrivalLane="C2D2_0" arrivalPos="492.80" arrivalSpeed="13.43" duration="189.00" routeLength="1495.00" waitingTime="30.00" waitingCount="2" stopTime="0.00" timeLoss="81.19" rerouteNo="0" devices="tripinfo_f_0_0.17" vType="DEFAULT_VEHTYPE" speedFactor="1.01" vaporized=""/>
    <tripinfo id="f_0_2.9" depart="85.00" departLane="E2D2_0" departPos="5.10" departSpeed="0.00" departDelay="2.00" arrival="248.00" arrivalLane="C2B2_0" arrivalPos="492.80" arrivalSpeed="14.21" duration="163.00" routeLength="1495.00" waitingTime="20.00" waitingCount="1" stopTime="0.00" timeLoss="70.43" rerouteNo="0" devices="tripinfo_f_0_2.9" vType="DEFAULT_VEHTYPE" speedFactor="1.17" vaporized=""/>
    <tripinfo id="f_0_0.18" depart="62.00" departLane="A2B2_0" departPos="5.10" departSpeed="0.00" departDelay="0.00" arrival="250.00" arrivalLane="C2D2_0" arrivalPos="492.80" arrivalSpeed="12.52" duration="188.00" routeLength="1495.00" waitingTime="27.00" waitingCount="2" stopTime="0.00" timeLoss="78.91" rerouteNo="0" devices="tripinfo_f_0_0.18" vType="DEFAULT_VEHTYPE" speedFactor="0.99" vaporized=""/>
    <tripinfo id="f_0_2.10" depart="92.00" departLane="E2D2_0" departPos="5.10" departSpeed="0.00" departDelay="0.00" arrival="250.00" arrivalLane="C2B2_0" arrivalPos="492.80" arrivalSpeed="11.99" duration="158.00" routeLength="1495.00" waitingTime="17.00" waitingCount="1" stopTime="0.00" timeLoss="42.57" rerouteNo="0" devices="tripinfo_f_0_2.10" vType="DEFAULT_VEHTYPE" speedFactor="0.94" vaporized=""/>
    <tripinfo id="f_0_0.19" depart="71.00" departLane="A2B2_0" departPos="5.10" departSpeed="0.00" departDelay="0.00" arrival="251.00" arrivalLane="C2D2_0" arrivalPos="492.80" arrivalSpeed="14.32" duration="180.00" routeLength="1495.00" waitingTime="27.00" waitingCount="2" stopTime="0.00" timeLoss="82.05" rerouteNo="0" devices="tripinfo_f_0_0.19" vType="DEFAULT_VEHTYPE" speedFactor="1.10" vaporized=""/>
    <tripinfo id="f_0_2.11" depart="97.00" departLane="E2D2_0" departPos="5.10" departSpeed="0.00" departDelay="0.00" arrival="251.00" arrivalLane="C2B2_0" arrivalPos="492.80" arrivalSpeed="13.24" duration="154.00" routeLength="1495.00" waitingTime="17.00" waitingCount="1" stopTime="0.00" timeLoss="43.27" rerouteNo="0" devices="tripinfo_f_0_2.11" vType="DEFAULT_VEHTYPE" speedFactor="0.97" vaporized=""/>
    <tripinfo id="f_0_0.20" depart="74.00" departLane="A2B2_0" departPos="5.10" departSpeed="0.00" departDelay="2.00" arrival="253.00" arrivalLane="C2D2_0" arrivalPos="492.80" arrivalSpeed="11.63" duration="179.00" routeLength="1495.00" waitingTime="23.00" waitingCount="2" stopTime="0.00" timeLoss="59.35" rerouteNo="0" devices="tripinfo_f_0_0.20" vType="DEFAULT_VEHTYPE" speedFactor="0.90" vaporized=""/>
    <tripinfo id="f_0_0.21" depart="77.00" departLane="A2B2_0" departPos="5.10" departSpeed="0.00" departDelay="0.00" arrival="255.00" arrivalLane="C2D2_0" arrivalPos="492.80" arrivalSpeed="12.58" duration="178.00" routeLength="1495.00" waitingTime="23.00" waitingCount="2" stopTime="0.00" timeLoss="65.17" rerouteNo="0" devices="tripinfo_f_0_0.21" vType="DEFAULT_VEHTYPE" speedFactor="0.96" vaporized=""/>
    <tripinfo id="f_0_0.22" depart="81.00" departLane="A2B2_0" departPos="5.10" departSpeed="0.00" departDelay="0.00" arrival="257.00" arrivalLane="C2D2_0" arrivalPos="492.80" arrivalSpeed="13.34" duration="176.00" routeLength="1495.00" waitingTime="21.00" waitingCount="2" stopTime="0.00" timeLoss="67.36" rerouteNo="0" devices="tripinfo_f_0_0.22" vType="DEFAULT_VEHTYPE" speedFactor="1.00" vaporized=""/>
    <tripinfo id="f_0_0.23" depart="84.00" departLane="A2B2_0" departPos="5.10" departSpeed="0.00" departDelay="0.00" arrival="259.00" arrivalLane="C2D2_0" arrivalPos="492.80" arrivalSpeed="13.04" duration="175.00" routeLength="1495.00" waitingTime="19.00" waitingCount="2" stopTime="0.00" timeLoss="68.26" rerouteNo="0" devices="tripinfo_f_0_0.23" vType="DEFAULT_VEHTYPE" speedFactor="1.02" vaporized=""/>
    <tripinfo id="f_0_0.24" depart="89.00" departLane="A2B2_0" departPos="5.10" departSpeed="0.00" departDelay="0.00" arrival="260.00" arrivalLane="C2D2_0" arrivalPos="492.80" arrivalSpeed="13.90" duration="171.00" routeLength="1495.00" waitingTime="17.00" waitingCount="1" stopTime="0.00" timeLoss="65.60" rerouteNo="0" devices="tripinfo_f_0_0.24" vType="DEFAULT_VEHTYPE" speedFactor="1.02" vaporized=""/>
    <tripinfo id="f_1_3.0" depart="150.00" departLane="C0C1_0" departPos="5.10" departSpeed="0.00" departDelay="0.00" arrival="260.00" arrivalLane="C2C3_0" arrivalPos="492.80" arrivalSpeed="14.10" duration="110.00" routeLength="1495.00" waitingTime="0.00" waitingCount="0" stopTime="0.00" timeLoss="7.35" rerouteNo="0" devices="tripinfo_f_1_3.0" vType="DEFAULT_VEHTYPE" speedFactor="1.06" vaporized=""/>