<?xml version="1.0" encoding="UTF-8"?>

<!-- generated on 2024-08-23 17:22:22 by Eclipse SUMO sumo Version 1.17.0
<configuration xmlns:xsi="http://www.w3.org/2001/XMLSchema-instance" xsi:noNamespaceSchemaLocation="http://sumo.dlr.de/xsd/sumoConfiguration.xsd">

    <input>
        <net-file value="project_actuated.net.xml"/>
        <route-files value="project_2.rou.xml"/>
    </input>

    <output>
        <summary-output value="control_summaries\summary_project_actuated_2.xml"/>
        <tripinfo-output value="control_summaries\tripinfos_project_actuated_2.xml"/>
    </output>

    <processing>
        <time-to-teleport value="-1"/>
    </processing>

    <traci_server>
        <remote-port value="65288"/>
    </traci_server>

</configuration>
-->

<tripinfos xmlns:xsi="http://www.w3.org/2001/XMLSchema-instance" xsi:noNamespaceSchemaLocation="http://sumo.dlr.de/xsd/tripinfo_file.xsd">
    <tripinfo id="f_0_0.0" depart="2.00" departLane="1i_0" departPos="5.10" departSpeed="0.00" departDelay="0.00" arrival="37.00" arrivalLane="2o_0" arrivalPos="489.60" arrivalSpeed="54.49" duration="35.00" routeLength="994.90" waitingTime="0.00" waitingCount="0" stopTime="0.00" timeLoss="16.78" rerouteNo="0" devices="tripinfo_f_0_0.0" vType="DEFAULT_VEHTYPE" speedFactor="1.06" vaporized=""/>
    <tripinfo id="f_0_0.1" depart="5.00" departLane="1i_0" departPos="5.10" departSpeed="0.00" departDelay="0.00" arrival="37.00" arrivalLane="2o_1" arrivalPos="489.60" arrivalSpeed="55.01" duration="32.00" routeLength="994.90" waitingTime="0.00" waitingCount="0" stopTime="0.00" timeLoss="13.46" rerouteNo="0" devices="tripinfo_f_0_0.1" vType="DEFAULT_VEHTYPE" speedFactor="0.94" vaporized=""/>
    <tripinfo id="f_0_0.2" depart="8.00" departLane="1i_0" departPos="5.10" departSpeed="0.00" departDelay="1.00" arrival="41.00" arrivalLane="2o_0" arrivalPos="489.60" arrivalSpeed="54.43" duration="33.00" routeLength="994.90" waitingTime="0.00" waitingCount="0" stopTime="0.00" timeLoss="14.39" rerouteNo="0" devices="tripinfo_f_0_0.2" vType="DEFAULT_VEHTYPE" speedFactor="1.01" vaporized=""/>
    <tripinfo id="f_0_0.3" depart="11.00" departLane="1i_0" departPos="5.10" departSpeed="0.00" departDelay="1.00" arrival="42.00" arrivalLane="2o_0" arrivalPos="489.60" arrivalSpeed="55.19" duration="31.00" routeLength="994.90" waitingTime="0.00" waitingCount="0" stopTime="0.00" timeLoss="12.94" rerouteNo="0" devices="tripinfo_f_0_0.3" vType="DEFAULT_VEHTYPE" speedFactor="1.08" vaporized=""/>
    <tripinfo id="f_0_0.5" depart="18.00" departLane="1i_0" departPos="5.10" departSpeed="0.00" departDelay="2.00" arrival="55.00" arrivalLane="2o_1" arrivalPos="489.60" arrivalSpeed="48.64" duration="37.00" routeLength="994.90" waitingTime="0.00" waitingCount="0" stopTime="0.00" timeLoss="16.36" rerouteNo="0" devices="tripinfo_f_0_0.5" vType="DEFAULT_VEHTYPE" speedFactor="0.83" vaporized=""/>
    <tripinfo id="f_0_0.6" depart="21.00" departLane="1i_0" departPos="5.10" departSpeed="0.00" departDelay="1.00" arrival="56.00" arrivalLane="2o_1" arrivalPos="489.60" arrivalSpeed="51.72" duration="35.00" routeLength="994.90" waitingTime="0.00" waitingCount="0" stopTime="0.00" timeLoss="16.79" rerouteNo="0" devices="tripinfo_f_0_0.6" vType="DEFAULT_VEHTYPE" speedFactor="1.05" vaporized=""/>
    <tripinfo id="f_0_0.7" depart="25.00" departLane="1i_0" departPos="5.10" departSpeed="0.00" departDelay="0.00" arrival="58.00" arrivalLane="2o_1" arrivalPos="489.60" arrivalSpeed="54.29" duration="33.00" routeLength="994.90" waitingTime="0.00" waitingCount="0" stopTime="0.00" timeLoss="14.88" rerouteNo="0" devices="tripinfo_f_0_0.7" vType="DEFAULT_VEHTYPE" speedFactor="0.94" vaporized=""/>
    <tripinfo id="f_0_0.4" depart="15.00" departLane="1i_0" departPos="5.10" departSpeed="0.00" departDelay="0.00" arrival="60.00" arrivalLane="2o_0" arrivalPos="489.60" arrivalSpeed="44.75" duration="45.00" routeLength="994.90" waitingTime="0.00" waitingCount="0" stopTime="0.00" timeLoss="26.76" rerouteNo="0" devices="tripinfo_f_0_0.4" vType="DEFAULT_VEHTYPE" speedFactor="1.03" vaporized=""/>
    <tripinfo id="f_0_1.1" depart="27.00" departLane="4i_0" departPos="5.10" departSpeed="0.00" departDelay="1.00" arrival="67.00" arrivalLane="3o_1" arrivalPos="489.60" arrivalSpeed="49.45" duration="40.00" routeLength="994.90" waitingTime="0.00" waitingCount="0" stopTime="0.00" timeLoss="19.76" rerouteNo="0" devices="tripinfo_f_0_1.1" vType="DEFAULT_VEHTYPE" speedFactor="0.86" vaporized=""/>
    <tripinfo id="f_0_1.2" depart="30.00" departLane="4i_0" departPos="5.10" departSpeed="0.00" departDelay="3.00" arrival="68.00" arrivalLane="3o_1" arrivalPos="489.60" arrivalSpeed="49.10" duration="38.00" routeLength="994.90" waitingTime="0.00" waitingCount="0" stopTime="0.00" timeLoss="19.63" rerouteNo="0" devices="tripinfo_f_0_1.2" vType="DEFAULT_VEHTYPE" speedFactor="1.09" vaporized=""/>
    <tripinfo id="f_0_1.4" depart="36.00" departLane="4i_0" departPos="5.10" departSpeed="0.00" departDelay="5.00" arrival="70.00" arrivalLane="3o_1" arrivalPos="489.60" arrivalSpeed="53.12" duration="34.00" routeLength="994.90" waitingTime="0.00" waitingCount="0" stopTime="0.00" timeLoss="15.16" rerouteNo="0" devices="tripinfo_f_0_1.4" vType="DEFAULT_VEHTYPE" speedFactor="0.99" vaporized=""/>
    <tripinfo id="f_0_1.0" depart="24.00" departLane="4i_0" departPos="5.10" departSpeed="0.00" departDelay="0.00" arrival="72.00" arrivalLane="3o_0" arrivalPos="489.60" arrivalSpeed="45.67" duration="48.00" routeLength="994.90" waitingTime="0.00" waitingCount="0" stopTime="0.00" timeLoss="29.04" rerouteNo="0" devices="tripinfo_f_0_1.0" vType="DEFAULT_VEHTYPE" speedFactor="0.89" vaporized=""/>
    <tripinfo id="f_0_1.3" depart="33.00" departLane="4i_0" departPos="5.10" departSpeed="0.00" departDelay="4.00" arrival="72.00" arrivalLane="3o_1" arrivalPos="489.60" arrivalSpeed="49.00" duration="39.00" routeLength="994.90" waitingTime="0.00" waitingCount="0" stopTime="0.00" timeLoss="21.03" rerouteNo="0" devices="tripinfo_f_0_1.3" vType="DEFAULT_VEHTYPE" speedFactor="1.05" vaporized=""/>
    <tripinfo id="f_0_1.5" depart="41.00" departLane="4i_0" departPos="5.10" departSpeed="0.00" departDelay="0.00" arrival="74.00" arrivalLane="3o_1" arrivalPos="489.60" arrivalSpeed="54.99" duration="33.00" routeLength="994.90" waitingTime="0.00" waitingCount="0" stopTime="0.00" timeLoss="14.84" rerouteNo="0" devices="tripinfo_f_0_1.5" vType="DEFAULT_VEHTYPE" speedFactor="0.97" vaporized=""/>
    <tripinfo id="f_0_2.1" depart="43.00" departLane="2i_0" departPos="5.10" departSpeed="0.00" departDelay="1.00" arrival="77.00" arrivalLane="1o_1" arrivalPos="489.60" arrivalSpeed="49.24" duration="34.00" routeLength="994.90" waitingTime="0.00" waitingCount="0" stopTime="0.00" timeLoss="13.70" rerouteNo="0" devices="tripinfo_f_0_2.1" vType="DEFAULT_VEHTYPE" speedFactor="0.83" vaporized=""/>
    <tripinfo id="f_0_2.2" depart="46.00" departLane="2i_0" departPos="5.10" departSpeed="0.00" departDelay="2.00" arrival="79.00" arrivalLane="1o_1" arrivalPos="489.60" arrivalSpeed="53.26" duration="33.00" routeLength="994.90" waitingTime="0.00" waitingCount="0" stopTime="0.00" timeLoss="14.08" rerouteNo="0" devices="tripinfo_f_0_2.2" vType="DEFAULT_VEHTYPE" speedFactor="0.92" vaporized=""/>
    <tripinfo id="f_0_2.0" depart="40.00" departLane="2i_0" departPos="5.10" departSpeed="0.00" departDelay="0.00" arrival="81.00" arrivalLane="1o_0" arrivalPos="489.60" arrivalSpeed="47.98" duration="41.00" routeLength="994.90" waitingTime="0.00" waitingCount="0" stopTime="0.00" timeLoss="22.62" rerouteNo="0" devices="tripinfo_f_0_2.0" vType="DEFAULT_VEHTYPE" speedFactor="1.02" vaporized=""/>
    <tripinfo id="f_0_2.3" depart="49.00" departLane="2i_0" departPos="5.10" departSpeed="0.00" departDelay="4.00" arrival="81.00" arrivalLane="1o_1" arrivalPos="489.60" arrivalSpeed="55.10" duration="32.00" routeLength="994.90" waitingTime="0.00" waitingCount="0" stopTime="0.00" timeLoss="13.79" rerouteNo="0" devices="tripinfo_f_0_2.3" vType="DEFAULT_VEHTYPE" speedFactor="0.93" vaporized=""/>
    <tripinfo id="f_0_2.4" depart="52.00" departLane="2i_0" departPos="5.10" departSpeed="0.00" departDelay="6.00" arrival="84.00" arrivalLane="1o_0" arrivalPos="489.60" arrivalSpeed="54.39" duration="32.00" routeLength="994.90" waitingTime="0.00" waitingCount="0" stopTime="0.00" timeLoss="13.84" rerouteNo="0" devices="tripinfo_f_0_2.4" vType="DEFAULT_VEHTYPE" speedFactor="1.18" vaporized=""/>
    <tripinfo id="f_0_0.8" depart="29.00" departLane="1i_0" departPos="5.10" departSpeed="0.00" departDelay="0.00" arrival="86.00" arrivalLane="2o_0" arrivalPos="489.60" arrivalSpeed="43.36" duration="57.00" routeLength="994.90" waitingTime="7.00" waitingCount="1" stopTime="0.00" timeLoss="38.86" rerouteNo="0" devices="tripinfo_f_0_0.8" vType="DEFAULT_VEHTYPE" speedFactor="1.03" vaporized=""/>
    <tripinfo id="f_0_0.9" depart="32.00" departLane="1i_0" departPos="5.10" departSpeed="0.00" departDelay="1.00" arrival="86.00" arrivalLane="2o_1" arrivalPos="489.60" arrivalSpeed="45.40" duration="54.00" routeLength="994.90" waitingTime="4.00" waitingCount="1" stopTime="0.00" timeLoss="35.28" rerouteNo="0" devices="tripinfo_f_0_0.9" vType="DEFAULT_VEHTYPE" speedFactor="1.12" vaporized=""/>
    <tripinfo id="f_0_0.10" depart="35.00" departLane="1i_0" departPos="5.10" departSpeed="0.00" departDelay="3.00" arrival="87.00" arrivalLane="2o_1" arrivalPos="489.60" arrivalSpeed="44.03" duration="52.00" routeLength="994.90" waitingTime="2.00" waitingCount="1" stopTime="0.00" timeLoss="33.89" rerouteNo="0" devices="tripinfo_f_0_0.10" vType="DEFAULT_VEHTYPE" speedFactor="0.93" vaporized=""/>
    <tripinfo id="f_0_2.5" depart="55.00" departLane="2i_0" departPos="5.10" departSpeed="0.00" departDelay="5.00" arrival="87.00" arrivalLane="1o_0" arrivalPos="489.60" arrivalSpeed="54.53" duration="32.00" routeLength="994.90" waitingTime="0.00" waitingCount="0" stopTime="0.00" timeLoss="13.51" rerouteNo="0" devices="tripinfo_f_0_2.5" vType="DEFAULT_VEHTYPE" speedFactor="1.01" vaporized=""/>
    <tripinfo id="f_0_0.12" depart="40.00" departLane="1i_0" departPos="5.10" departSpeed="0.00" departDelay="6.00" arrival="88.00" arrivalLane="2o_1" arrivalPos="489.60" arrivalSpeed="43.70" duration="48.00" routeLength="994.90" waitingTime="0.00" waitingCount="0" stopTime="0.00" timeLoss="30.09" rerouteNo="0" devices="tripinfo_f_0_0.12" vType="DEFAULT_VEHTYPE" speedFactor="0.94" vaporized=""/>
    <tripinfo id="f_0_0.11" depart="38.00" departLane="1i_0" departPos="5.10" departSpeed="0.00" departDelay="5.00" arrival="89.00" arrivalLane="2o_0" arrivalPos="489.60" arrivalSpeed="44.82" duration="51.00" routeLength="994.90" waitingTime="0.00" waitingCount="0" stopTime="0.00" timeLoss="31.58" rerouteNo="0" devices="tripinfo_f_0_0.11" vType="DEFAULT_VEHTYPE" speedFactor="0.88" vaporized=""/>
    <tripinfo id="f_0_0.14" depart="47.00" departLane="1i_0" departPos="5.10" departSpeed="0.00" departDelay="7.00" arrival="90.00" arrivalLane="2o_1" arrivalPos="489.60" arrivalSpeed="46.05" duration="43.00" routeLength="994.90" waitingTime="0.00" waitingCount="0" stopTime="0.00" timeLoss="24.49" rerouteNo="0" devices="tripinfo_f_0_0.14" vType="DEFAULT_VEHTYPE" speedFactor="1.16" vaporized=""/>
    <tripinfo id="f_0_2.6" depart="58.00" departLane="2i_0" departPos="5.10" departSpeed="0.00" departDelay="1.00" arrival="90.00" arrivalLane="1o_0" arrivalPos="489.60" arrivalSpeed="55.23" duration="32.00" routeLength="994.90" waitingTime="0.00" waitingCount="0" stopTime="0.00" timeLoss="13.93" rerouteNo="0" devices="tripinfo_f_0_2.6" vType="DEFAULT_VEHTYPE" speedFactor="0.97" vaporized=""/>
    <tripinfo id="f_0_0.13" depart="44.00" departLane="1i_0" departPos="5.10" departSpeed="0.00" departDelay="5.00" arrival="91.00" arrivalLane="2o_0" arrivalPos="489.60" arrivalSpeed="41.95" duration="47.00" routeLength="994.90" waitingTime="0.00" waitingCount="0" stopTime="0.00" timeLoss="28.52" rerouteNo="0" devices="tripinfo_f_0_0.13" vType="DEFAULT_VEHTYPE" speedFactor="0.94" vaporized=""/>
    <tripinfo id="f_0_0.15" depart="50.00" departLane="1i_0" departPos="5.10" departSpeed="0.00" departDelay="9.00" arrival="91.00" arrivalLane="2o_1" arrivalPos="489.60" arrivalSpeed="45.26" duration="41.00" routeLength="994.90" waitingTime="0.00" waitingCount="0" stopTime="0.00" timeLoss="22.79" rerouteNo="0" devices="tripinfo_f_0_0.15" vType="DEFAULT_VEHTYPE" speedFactor="1.01" vaporized=""/>
    <tripinfo id="f_0_0.16" depart="53.00" departLane="1i_0" departPos="5.10" departSpeed="0.00" departDelay="9.00" arrival="93.00" arrivalLane="2o_1" arrivalPos="489.60" arrivalSpeed="46.16" duration="40.00" routeLength="994.90" waitingTime="0.00" waitingCount="0" stopTime="0.00" timeLoss="20.16" rerouteNo="0" devices="tripinfo_f_0_0.16" vType="DEFAULT_VEHTYPE" speedFactor="0.87" vaporized=""/>
    <tripinfo id="f_0_0.17" depart="56.00" departLane="1i_0" departPos="5.10" departSpeed="0.00" departDelay="11.00" arrival="94.00" arrivalLane="2o_1" arrivalPos="489.60" arrivalSpeed="46.54" duration="38.00" routeLength="994.90" waitingTime="0.00" waitingCount="0" stopTime="0.00" timeLoss="19.63" rerouteNo="0" devices="tripinfo_f_0_0.17" vType="DEFAULT_VEHTYPE" speedFactor="0.95" vaporized=""/>
    <tripinfo id="f_0_0.18" depart="59.00" departLane="1i_0" departPos="5.10" departSpeed="0.00" departDelay="12.00" arrival="95.00" arrivalLane="2o_1" arrivalPos="489.60" arrivalSpeed="47.51" duration="36.00" routeLength="994.90" waitingTime="0.00" waitingCount="0" stopTime="0.00" timeLoss="18.01" rerouteNo="0" devices="tripinfo_f_0_0.18" vType="DEFAULT_VEHTYPE" speedFactor="1.15" vaporized=""/>
    <tripinfo id="f_0_0.19" depart="62.00" departLane="1i_0" departPos="5.10" departSpeed="0.00" departDelay="7.00" arrival="97.00" arrivalLane="2o_0" arrivalPos="489.60" arrivalSpeed="49.93" duration="35.00" routeLength="994.90" waitingTime="0.00" waitingCount="0" stopTime="0.00" timeLoss="16.38" rerouteNo="0" devices="tripinfo_f_0_0.19" vType="DEFAULT_VEHTYPE" speedFactor="0.99" vaporized=""/>
    <tripinfo id="f_0_2.7" depart="65.00" departLane="2i_0" departPos="5.10" departSpeed="0.00" departDelay="0.00" arrival="97.00" arrivalLane="1o_0" arrivalPos="489.60" arrivalSpeed="54.94" duration="32.00" routeLength="994.90" waitingTime="0.00" waitingCount="0" stopTime="0.00" timeLoss="13.87" rerouteNo="0" devices="tripinfo_f_0_2.7" vType="DEFAULT_VEHTYPE" speedFactor="1.09" vaporized=""/>
    <tripinfo id="f_0_0.20" depart="65.00" departLane="1i_0" departPos="5.10" departSpeed="0.00" departDelay="6.00" arrival="99.00" arrivalLane="2o_0" arrivalPos="489.60" arrivalSpeed="54.45" duration="34.00" routeLength="994.90" waitingTime="0.00" waitingCount="0" stopTime="0.00" timeLoss="15.40" rerouteNo="0" devices="tripinfo_f_0_0.20" vType="DEFAULT_VEHTYPE" speedFactor="1.10" vaporized=""/>
    <tripinfo id="f_0_2.8" depart="68.00" departLane="2i_0" departPos="5.10" departSpeed="0.00" departDelay="1.00" arrival="101.00" arrivalLane="1o_0" arrivalPos="489.60" arrivalSpeed="54.45" duration="33.00" routeLength="994.90" waitingTime="0.00" waitingCount="0" stopTime="0.00" timeLoss="14.37" rerouteNo="0" devices="tripinfo_f_0_2.8" vType="DEFAULT_VEHTYPE" speedFactor="1.04" vaporized=""/>
    <tripinfo id="f_0_0.21" depart="68.00" departLane="1i_0" departPos="5.10" departSpeed="0.00" departDelay="6.00" arrival="102.00" arrivalLane="2o_0" arrivalPos="489.60" arrivalSpeed="54.45" duration="34.00" routeLength="994.90" waitingTime="0.00" waitingCount="0" stopTime="0.00" timeLoss="15.13" rerouteNo="0" devices="tripinfo_f_0_0.21" vType="DEFAULT_VEHTYPE" speedFactor="1.03" vaporized=""/>
    <tripinfo id="f_0_0.22" depart="72.00" departLane="1i_0" departPos="5.10" departSpeed="0.00" departDelay="8.00" arrival="105.00" arrivalLane="2o_0" arrivalPos="489.60" arrivalSpeed="54.28" duration="33.00" routeLength="994.90" waitingTime="0.00" waitingCount="0" stopTime="0.00" timeLoss="15.09" rerouteNo="0" devices="tripinfo_f_0_0.22" vType="DEFAULT_VEHTYPE" speedFactor="0.96" vaporized=""/>
    <tripinfo id="f_0_0.23" depart="75.00" departLane="1i_0" departPos="5.10" departSpeed="0.00" departDelay="4.00" arrival="107.00" arrivalLane="2o_0" arrivalPos="489.60" arrivalSpeed="55.01" duration="32.00" routeLength="994.90" waitingTime="0.00" waitingCount="0" stopTime="0.00" timeLoss="13.44" rerouteNo="0" devices="tripinfo_f_0_0.23" vType="DEFAULT_VEHTYPE" speedFactor="1.09" vaporized=""/>
    <tripinfo id="f_0_3.0" depart="80.00" departLane="3i_0" departPos="5.10" departSpeed="0.00" departDelay="0.00" arrival="112.00" arrivalLane="4o_0" arrivalPos="489.60" arrivalSpeed="54.42" duration="32.00" routeLength="994.90" waitingTime="0.00" waitingCount="0" stopTime="0.00" timeLoss="13.29" rerouteNo="0" devices="tripinfo_f_0_3.0" vType="DEFAULT_VEHTYPE" speedFactor="1.02" vaporized=""/>
    <tripinfo id="f_0_3.1" depart="83.00" departLane="3i_0" departPos="5.10" departSpeed="0.00" departDelay="2.00" arrival="114.00" arrivalLane="4o_0" arrivalPos="489.60" arrivalSpeed="53.38" duration="31.00" routeLength="994.90" waitingTime="0.00" waitingCount="0" stopTime="0.00" timeLoss="12.24" rerouteNo="0" devices="tripinfo_f_0_3.1" vType="DEFAULT_VEHTYPE" speedFactor="0.90" vaporized=""/>
    <tripinfo id="f_0_3.2" depart="86.00" departLane="3i_0" departPos="5.10" departSpeed="0.00" departDelay="1.00" arrival="118.00" arrivalLane="4o_0" arrivalPos="489.60" arrivalSpeed="55.19" duration="32.00" routeLength="994.90" waitingTime="0.00" waitingCount="0" stopTime="0.00" timeLoss="13.84" rerouteNo="0" devices="tripinfo_f_0_3.2" vType="DEFAULT_VEHTYPE" speedFactor="1.02" vaporized=""/>
    <tripinfo id="f_0_1.6" depart="44.00" departLane="4i_0" departPos="5.10" departSpeed="0.00" departDelay="2.00" arrival="120.00" arrivalLane="3o_0" arrivalPos="489.60" arrivalSpeed="45.63" duration="76.00" routeLength="994.90" waitingTime="25.00" waitingCount="1" stopTime="0.00" timeLoss="56.71" rerouteNo="0" devices="tripinfo_f_0_1.6" vType="DEFAULT_VEHTYPE" speedFactor="0.89" vaporized=""/>
    <tripinfo id="f_0_1.7" depart="47.00" departLane="4i_0" departPos="5.10" departSpeed="0.00" departDelay="2.00" arrival="120.00" arrivalLane="3o_1" arrivalPos="489.60" arrivalSpeed="42.94" duration="73.00" routeLength="994.90" waitingTime="22.00" waitingCount="1" stopTime="0.00" timeLoss="55.04" rerouteNo="0" devices="tripinfo_f_0_1.7" vType="DEFAULT_VEHTYPE" speedFactor="1.13" vaporized=""/>
    <tripinfo id="f_0_3.3" depart="89.00" departLane="3i_0" departPos="5.10" departSpeed="0.00" departDelay="3.00" arrival="121.00" arrivalLane="4o_0" arrivalPos="489.60" arrivalSpeed="55.02" duration="32.00" routeLength="994.90" waitingTime="0.00" waitingCount="0" stopTime="0.00" timeLoss="13.62" rerouteNo="0" devices="tripinfo_f_0_3.3" vType="DEFAULT_VEHTYPE" speedFactor="0.99" vaporized=""/>
    <tripinfo id="f_0_1.8" depart="51.00" departLane="4i_0" departPos="5.10" departSpeed="0.00" departDelay="0.00" arrival="122.00" arrivalLane="3o_1" arrivalPos="489.60" arrivalSpeed="44.67" duration="71.00" routeLength="994.90" waitingTime="19.00" waitingCount="1" stopTime="0.00" timeLoss="52.51" rerouteNo="0" devices="tripinfo_f_0_1.8" vType="DEFAULT_VEHTYPE" speedFactor="1.17" vaporized=""/>
    <tripinfo id="f_0_1.9" depart="56.00" departLane="4i_0" departPos="5.10" departSpeed="0.00" departDelay="0.00" arrival="122.00" arrivalLane="3o_0" arrivalPos="489.60" arrivalSpeed="43.49" duration="66.00" routeLength="994.90" waitingTime="13.00" waitingCount="2" stopTime="0.00" timeLoss="47.93" rerouteNo="0" devices="tripinfo_f_0_1.9" vType="DEFAULT_VEHTYPE" speedFactor="1.02" vaporized=""/>
    <tripinfo id="f_0_1.10" depart="59.00" departLane="4i_0" departPos="5.10" departSpeed="0.00" departDelay="1.00" arrival="123.00" arrivalLane="3o_1" arrivalPos="489.60" arrivalSpeed="42.48" duration="64.00" routeLength="994.90" waitingTime="13.00" waitingCount="1" stopTime="0.00" timeLoss="46.07" rerouteNo="0" devices="tripinfo_f_0_1.10" vType="DEFAULT_VEHTYPE" speedFactor="1.18" vaporized=""/>
    <tripinfo id="f_0_1.11" depart="62.00" departLane="4i_0" departPos="5.10" departSpeed="0.00" departDelay="2.00" arrival="124.00" arrivalLane="3o_0" arrivalPos="489.60" arrivalSpeed="44.69" duration="62.00" routeLength="994.90" waitingTime="7.00" waitingCount="2" stopTime="0.00" timeLoss="43.10" rerouteNo="0" devices="tripinfo_f_0_1.11" vType="DEFAULT_VEHTYPE" speedFactor="0.90" vaporized=""/>
    <tripinfo id="f_0_3.4" depart="92.00" departLane="3i_0" departPos="5.10" departSpeed="0.00" departDelay="5.00" arrival="124.00" arrivalLane="4o_0" arrivalPos="489.60" arrivalSpeed="52.35" duration="32.00" routeLength="994.90" waitingTime="0.00" waitingCount="0" stopTime="0.00" timeLoss="12.59" rerouteNo="0" devices="tripinfo_f_0_3.4" vType="DEFAULT_VEHTYPE" speedFactor="0.88" vaporized=""/>
    <tripinfo id="f_0_1.12" depart="69.00" departLane="4i_0" departPos="5.10" departSpeed="0.00" departDelay="0.00" arrival="125.00" arrivalLane="3o_1" arrivalPos="489.60" arrivalSpeed="45.78" duration="56.00" routeLength="994.90" waitingTime="4.00" waitingCount="1" stopTime="0.00" timeLoss="37.46" rerouteNo="0" devices="tripinfo_f_0_1.12" vType="DEFAULT_VEHTYPE" speedFactor="1.04" vaporized=""/>
    <tripinfo id="f_0_1.13" depart="73.00" departLane="4i_0" departPos="5.10" departSpeed="0.00" departDelay="0.00" arrival="125.00" arrivalLane="3o_0" arrivalPos="489.60" arrivalSpeed="42.08" duration="52.00" routeLength="994.90" waitingTime="0.00" waitingCount="0" stopTime="0.00" timeLoss="33.57" rerouteNo="0" devices="tripinfo_f_0_1.13" vType="DEFAULT_VEHTYPE" speedFactor="0.90" vaporized=""/>
    <tripinfo id="f_0_1.14" depart="77.00" departLane="4i_0" departPos="5.10" departSpeed="0.00" departDelay="0.00" arrival="126.00" arrivalLane="3o_1" arrivalPos="489.60" arrivalSpeed="44.39" duration="49.00" routeLength="994.90" waitingTime="0.00" waitingCount="0" stopTime="0.00" timeLoss="29.40" rerouteNo="0" devices="tripinfo_f_0_1.14" vType="DEFAULT_VEHTYPE" speedFactor="0.85" vaporized=""/>
    <tripinfo id="f_0_3.5" depart="95.00" departLane="3i_0" departPos="5.10" departSpeed="0.00" departDelay="6.00" arrival="127.00" arrivalLane="4o_0" arrivalPos="489.60" arrivalSpeed="54.85" duration="32.00" routeLength="994.90" waitingTime="0.00" waitingCount="0" stopTime="0.00" timeLoss="13.30" rerouteNo="0" devices="tripinfo_f_0_3.5" vType="DEFAULT_VEHTYPE" speedFactor="0.91" vaporized=""/>
    <tripinfo id="f_0_1.15" depart="80.00" departLane="4i_0" departPos="5.10" departSpeed="0.00" departDelay="0.00" arrival="128.00" arrivalLane="3o_1" arrivalPos="489.60" arrivalSpeed="44.70" duration="48.00" routeLength="994.90" waitingTime="0.00" waitingCount="0" stopTime="0.00" timeLoss="29.49" rerouteNo="0" devices="tripinfo_f_0_1.15" vType="DEFAULT_VEHTYPE" speedFactor="1.17" vaporized=""/>
    <tripinfo id="f_0_1.16" depart="83.00" departLane="4i_0" departPos="5.10" departSpeed="0.00" departDelay="2.00" arrival="128.00" arrivalLane="3o_0" arrivalPos="489.60" arrivalSpeed="45.72" duration="45.00" routeLength="994.90" waitingTime="0.00" waitingCount="0" stopTime="0.00" timeLoss="26.32" rerouteNo="0" devices="tripinfo_f_0_1.16" vType="DEFAULT_VEHTYPE" speedFactor="1.00" vaporized=""/>
    <tripinfo id="f_0_1.17" depart="86.00" departLane="4i_0" departPos="5.10" departSpeed="0.00" departDelay="3.00" arrival="129.00" arrivalLane="3o_1" arrivalPos="489.60" arrivalSpeed="45.99" duration="43.00" routeLength="994.90" waitingTime="0.00" waitingCount="0" stopTime="0.00" timeLoss="24.88" rerouteNo="0" devices="tripinfo_f_0_1.17" vType="DEFAULT_VEHTYPE" speedFactor="1.02" vaporized=""/>
    <tripinfo id="f_0_3.6" depart="98.00" departLane="3i_0" departPos="5.10" departSpeed="0.00" departDelay="8.00" arrival="130.00" arrivalLane="4o_0" arrivalPos="489.60" arrivalSpeed="54.98" duration="32.00" routeLength="994.90" waitingTime="0.00" waitingCount="0" stopTime="0.00" timeLoss="13.93" rerouteNo="0" devices="tripinfo_f_0_3.6" vType="DEFAULT_VEHTYPE" speedFactor="1.02" vaporized=""/>
    <tripinfo id="f_0_1.18" depart="89.00" departLane="4i_0" departPos="5.10" departSpeed="0.00" departDelay="4.00" arrival="131.00" arrivalLane="3o_1" arrivalPos="489.60" arrivalSpeed="45.88" duration="42.00" routeLength="994.90" waitingTime="0.00" waitingCount="0" stopTime="0.00" timeLoss="23.42" rerouteNo="0" devices="tripinfo_f_0_1.18" vType="DEFAULT_VEHTYPE" speedFactor="1.12" vaporized=""/>
    <tripinfo id="f_0_1.19" depart="92.00" departLane="4i_0" departPos="5.10" departSpeed="0.00" departDelay="5.00" arrival="132.00" arrivalLane="3o_0" arrivalPos="489.60" arrivalSpeed="47.09" duration="40.00" routeLength="994.90" waitingTime="0.00" waitingCount="0" stopTime="0.00" timeLoss="21.45" rerouteNo="0" devices="tripinfo_f_0_1.19" vType="DEFAULT_VEHTYPE" speedFactor="0.94" vaporized=""/>
    <tripinfo id="f_0_1.20" depart="95.00" departLane="4i_0" departPos="5.10" departSpeed="0.00" departDelay="5.00" arrival="132.00" arrivalLane="3o_1" arrivalPos="489.60" arrivalSpeed="46.15" duration="37.00" routeLength="994.90" waitingTime="0.00" waitingCount="0" stopTime="0.00" timeLoss="18.82" rerouteNo="0" devices="tripinfo_f_0_1.20" vType="DEFAULT_VEHTYPE" speedFactor="1.04" vaporized=""/>
    <tripinfo id="f_0_3.7" depart="101.00" departLane="3i_0" departPos="5.10" departSpeed="0.00" departDelay="10.00" arrival="132.00" arrivalLane="4o_0" arrivalPos="489.60" arrivalSpeed="55.11" duration="31.00" routeLength="994.90" waitingTime="0.00" waitingCount="0" stopTime="0.00" timeLoss="13.07" rerouteNo="0" devices="tripinfo_f_0_3.7" vType="DEFAULT_VEHTYPE" speedFactor="1.02" vaporized=""/>
    <tripinfo id="f_0_1.21" depart="98.00" departLane="4i_0" departPos="5.10" departSpeed="0.00" departDelay="6.00" arrival="134.00" arrivalLane="3o_1" arrivalPos="489.60" arrivalSpeed="47.53" duration="36.00" routeLength="994.90" waitingTime="0.00" waitingCount="0" stopTime="0.00" timeLoss="17.32" rerouteNo="0" devices="tripinfo_f_0_1.21" vType="DEFAULT_VEHTYPE" speedFactor="0.97" vaporized=""/>
    <tripinfo id="f_0_1.22" depart="101.00" departLane="4i_0" departPos="5.10" departSpeed="0.00" departDelay="6.00" arrival="135.00" arrivalLane="3o_0" arrivalPos="489.60" arrivalSpeed="49.94" duration="34.00" routeLength="994.90" waitingTime="0.00" waitingCount="0" stopTime="0.00" timeLoss="15.79" rerouteNo="0" devices="tripinfo_f_0_1.22" vType="DEFAULT_VEHTYPE" speedFactor="0.98" vaporized=""/>
    <tripinfo id="f_0_3.8" depart="104.00" departLane="3i_0" departPos="5.10" departSpeed="0.00" departDelay="9.00" arrival="135.00" arrivalLane="4o_0" arrivalPos="489.60" arrivalSpeed="54.42" duration="31.00" routeLength="994.90" waitingTime="0.00" waitingCount="0" stopTime="0.00" timeLoss="12.82" rerouteNo="0" devices="tripinfo_f_0_3.8" vType="DEFAULT_VEHTYPE" speedFactor="1.03" vaporized=""/>
    <tripinfo id="f_0_1.23" depart="104.00" departLane="4i_0" departPos="5.10" departSpeed="0.00" departDelay="8.00" arrival="137.00" arrivalLane="3o_0" arrivalPos="489.60" arrivalSpeed="52.87" duration="33.00" routeLength="994.90" waitingTime="0.00" waitingCount="0" stopTime="0.00" timeLoss="14.20" rerouteNo="0" devices="tripinfo_f_0_1.23" vType="DEFAULT_VEHTYPE" speedFactor="1.01" vaporized=""/>
    <tripinfo id="f_0_3.9" depart="107.00" departLane="3i_0" departPos="5.10" departSpeed="0.00" departDelay="11.00" arrival="140.00" arrivalLane="4o_0" arrivalPos="489.60" arrivalSpeed="54.27" duration="33.00" routeLength="994.90" waitingTime="0.00" waitingCount="0" stopTime="0.00" timeLoss="14.61" rerouteNo="0" devices="tripinfo_f_0_3.9" vType="DEFAULT_VEHTYPE" speedFactor="1.09" vaporized=""/>
    <tripinfo id="f_0_1.24" depart="107.00" departLane="4i_0" departPos="5.10" departSpeed="0.00" departDelay="10.00" arrival="140.00" arrivalLane="3o_0" arrivalPos="489.60" arrivalSpeed="54.93" duration="33.00" routeLength="994.90" waitingTime="0.00" waitingCount="0" stopTime="0.00" timeLoss="14.13" rerouteNo="0" devices="tripinfo_f_0_1.24" vType="DEFAULT_VEHTYPE" speedFactor="1.03" vaporized=""/>
    <tripinfo id="f_0_0.25" depart="81.00" departLane="1i_0" departPos="5.10" departSpeed="0.00" departDelay="4.00" arrival="153.00" arrivalLane="2o_1" arrivalPos="489.60" arrivalSpeed="45.79" duration="72.00" routeLength="994.90" waitingTime="23.00" waitingCount="1" stopTime="0.00" timeLoss="52.49" rerouteNo="0" devices="tripinfo_f_0_0.25" vType="DEFAULT_VEHTYPE" speedFactor="0.88" vaporized=""/>
    <tripinfo id="f_0_2.10" depart="82.00" departLane="2i_0" departPos="5.10" departSpeed="0.00" departDelay="1.00" arrival="153.00" arrivalLane="1o_1" arrivalPos="489.60" arrivalSpeed="44.92" duration="71.00" routeLength="994.90" waitingTime="22.00" waitingCount="1" stopTime="0.00" timeLoss="52.91" rerouteNo="0" devices="tripinfo_f_0_2.10" vType="DEFAULT_VEHTYPE" speedFactor="1.00" vaporized=""/>
    <tripinfo id="f_0_0.24" depart="78.00" departLane="1i_0" departPos="5.10" departSpeed="0.00" departDelay="6.00" arrival="154.00" arrivalLane="2o_0" arrivalPos="489.60" arrivalSpeed="43.92" duration="76.00" routeLength="994.90" waitingTime="24.00" waitingCount="1" stopTime="0.00" timeLoss="57.59" rerouteNo="0" devices="tripinfo_f_0_0.24" vType="DEFAULT_VEHTYPE" speedFactor="1.00" vaporized=""/>
    <tripinfo id="f_0_2.9" depart="79.00" departLane="2i_0" departPos="5.10" departSpeed="0.00" departDelay="0.00" arrival="154.00" arrivalLane="1o_0" arrivalPos="489.60" arrivalSpeed="45.78" duration="75.00" routeLength="994.90" waitingTime="23.00" waitingCount="1" stopTime="0.00" timeLoss="55.21" rerouteNo="0" devices="tripinfo_f_0_2.9" vType="DEFAULT_VEHTYPE" speedFactor="0.85" vaporized=""/>