<?xml version="1.0" encoding="UTF-8"?>

<!-- generated on 2024-08-23 17:22:28 by Eclipse SUMO sumo Version 1.17.0
<configuration xmlns:xsi="http://www.w3.org/2001/XMLSchema-instance" xsi:noNamespaceSchemaLocation="http://sumo.dlr.de/xsd/sumoConfiguration.xsd">

    <input>
        <net-file value="project_actuated.net.xml"/>
        <route-files value="project_5.rou.xml"/>
    </input>

    <output>
        <summary-output value="control_summaries\summary_project_actuated_5.xml"/>
        <tripinfo-output value="control_summaries\tripinfos_project_actuated_5.xml"/>
    </output>

    <processing>
        <time-to-teleport value="-1"/>
    </processing>

    <traci_server>
        <remote-port value="65306"/>
    </traci_server>

</configuration>
-->

<tripinfos xmlns:xsi="http://www.w3.org/2001/XMLSchema-instance" xsi:noNamespaceSchemaLocation="http://sumo.dlr.de/xsd/tripinfo_file.xsd">
    <tripinfo id="f_0_0.0" depart="2.00" departLane="1i_0" departPos="5.10" departSpeed="0.00" departDelay="0.00" arrival="37.00" arrivalLane="2o_0" arrivalPos="489.60" arrivalSpeed="54.49" duration="35.00" routeLength="994.90" waitingTime="0.00" waitingCount="0" stopTime="0.00" timeLoss="16.78" rerouteNo="0" devices="tripinfo_f_0_0.0" vType="DEFAULT_VEHTYPE" speedFactor="1.06" vaporized=""/>
    <tripinfo id="f_0_0.1" depart="5.00" departLane="1i_0" departPos="5.10" departSpeed="0.00" departDelay="0.00" arrival="37.00" arrivalLane="2o_1" arrivalPos="489.60" arrivalSpeed="55.01" duration="32.00" routeLength="994.90" waitingTime="0.00" waitingCount="0" stopTime="0.00" timeLoss="13.46" rerouteNo="0" devices="tripinfo_f_0_0.1" vType="DEFAULT_VEHTYPE" speedFactor="0.94" vaporized=""/>
    <tripinfo id="f_0_0.2" depart="8.00" departLane="1i_0" departPos="5.10" departSpeed="0.00" departDelay="1.00" arrival="41.00" arrivalLane="2o_0" arrivalPos="489.60" arrivalSpeed="54.43" duration="33.00" routeLength="994.90" waitingTime="0.00" waitingCount="0" stopTime="0.00" timeLoss="14.45" rerouteNo="0" devices="tripinfo_f_0_0.2" vType="DEFAULT_VEHTYPE" speedFactor="1.01" vaporized=""/>
    <tripinfo id="f_0_0.3" depart="11.00" departLane="1i_0" departPos="5.10" departSpeed="0.00" departDelay="1.00" arrival="42.00" arrivalLane="2o_0" arrivalPos="489.60" arrivalSpeed="55.19" duration="31.00" routeLength="994.90" waitingTime="0.00" waitingCount="0" stopTime="0.00" timeLoss="12.87" rerouteNo="0" devices="tripinfo_f_0_0.3" vType="DEFAULT_VEHTYPE" speedFactor="1.08" vaporized=""/>
    <tripinfo id="f_0_0.5" depart="18.00" departLane="1i_0" departPos="5.10" departSpeed="0.00" departDelay="2.00" arrival="55.00" arrivalLane="2o_1" arrivalPos="489.60" arrivalSpeed="48.58" duration="37.00" routeLength="994.90" waitingTime="0.00" waitingCount="0" stopTime="0.00" timeLoss="16.52" rerouteNo="0" devices="tripinfo_f_0_0.5" vType="DEFAULT_VEHTYPE" speedFactor="0.83" vaporized=""/>
    <tripinfo id="f_0_0.6" depart="21.00" departLane="1i_0" departPos="5.10" departSpeed="0.00" departDelay="3.00" arrival="56.00" arrivalLane="2o_1" arrivalPos="489.60" arrivalSpeed="50.76" duration="35.00" routeLength="994.90" waitingTime="0.00" waitingCount="0" stopTime="0.00" timeLoss="16.92" rerouteNo="0" devices="tripinfo_f_0_0.6" vType="DEFAULT_VEHTYPE" speedFactor="1.05" vaporized=""/>
    <tripinfo id="f_0_0.7" depart="24.00" departLane="1i_0" departPos="5.10" departSpeed="0.00" departDelay="4.00" arrival="58.00" arrivalLane="2o_1" arrivalPos="489.60" arrivalSpeed="53.11" duration="34.00" routeLength="994.90" waitingTime="0.00" waitingCount="0" stopTime="0.00" timeLoss="14.69" rerouteNo="0" devices="tripinfo_f_0_0.7" vType="DEFAULT_VEHTYPE" speedFactor="0.89" vaporized=""/>
    <tripinfo id="f_0_0.4" depart="15.00" departLane="1i_0" departPos="5.10" departSpeed="0.00" departDelay="0.00" arrival="60.00" arrivalLane="2o_0" arrivalPos="489.60" arrivalSpeed="46.06" duration="45.00" routeLength="994.90" waitingTime="0.00" waitingCount="0" stopTime="0.00" timeLoss="26.58" rerouteNo="0" devices="tripinfo_f_0_0.4" vType="DEFAULT_VEHTYPE" speedFactor="1.03" vaporized=""/>
    <tripinfo id="f_0_0.8" depart="27.00" departLane="1i_0" departPos="5.10" departSpeed="0.00" departDelay="5.00" arrival="62.00" arrivalLane="2o_0" arrivalPos="489.60" arrivalSpeed="50.84" duration="35.00" routeLength="994.90" waitingTime="0.00" waitingCount="0" stopTime="0.00" timeLoss="16.49" rerouteNo="0" devices="tripinfo_f_0_0.8" vType="DEFAULT_VEHTYPE" speedFactor="0.94" vaporized=""/>
    <tripinfo id="f_0_0.9" depart="30.00" departLane="1i_0" departPos="5.10" departSpeed="0.00" departDelay="3.00" arrival="63.00" arrivalLane="2o_0" arrivalPos="489.60" arrivalSpeed="51.07" duration="33.00" routeLength="994.90" waitingTime="0.00" waitingCount="0" stopTime="0.00" timeLoss="13.47" rerouteNo="0" devices="tripinfo_f_0_0.9" vType="DEFAULT_VEHTYPE" speedFactor="0.86" vaporized=""/>
    <tripinfo id="f_0_0.10" depart="33.00" departLane="1i_0" departPos="5.10" departSpeed="0.00" departDelay="4.00" arrival="82.00" arrivalLane="2o_0" arrivalPos="489.60" arrivalSpeed="45.95" duration="49.00" routeLength="994.90" waitingTime="0.00" waitingCount="0" stopTime="0.00" timeLoss="30.76" rerouteNo="0" devices="tripinfo_f_0_0.10" vType="DEFAULT_VEHTYPE" speedFactor="1.09" vaporized=""/>
    <tripinfo id="f_0_1.1" depart="43.00" departLane="4i_0" departPos="5.10" departSpeed="0.00" departDelay="2.00" arrival="87.00" arrivalLane="3o_1" arrivalPos="489.60" arrivalSpeed="45.95" duration="44.00" routeLength="994.90" waitingTime="0.00" waitingCount="0" stopTime="0.00" timeLoss="25.82" rerouteNo="0" devices="tripinfo_f_0_1.1" vType="DEFAULT_VEHTYPE" speedFactor="1.05" vaporized=""/>
    <tripinfo id="f_0_1.2" depart="46.00" departLane="4i_0" departPos="5.10" departSpeed="0.00" departDelay="3.00" arrival="89.00" arrivalLane="3o_1" arrivalPos="489.60" arrivalSpeed="46.17" duration="43.00" routeLength="994.90" waitingTime="0.00" waitingCount="0" stopTime="0.00" timeLoss="24.36" rerouteNo="0" devices="tripinfo_f_0_1.2" vType="DEFAULT_VEHTYPE" speedFactor="1.12" vaporized=""/>
    <tripinfo id="f_0_1.0" depart="40.00" departLane="4i_0" departPos="5.10" departSpeed="0.00" departDelay="0.00" arrival="90.00" arrivalLane="3o_0" arrivalPos="489.60" arrivalSpeed="45.24" duration="50.00" routeLength="994.90" waitingTime="2.00" waitingCount="1" stopTime="0.00" timeLoss="32.03" rerouteNo="0" devices="tripinfo_f_0_1.0" vType="DEFAULT_VEHTYPE" speedFactor="1.03" vaporized=""/>
    <tripinfo id="f_0_1.3" depart="49.00" departLane="4i_0" departPos="5.10" departSpeed="0.00" departDelay="4.00" arrival="90.00" arrivalLane="3o_1" arrivalPos="489.60" arrivalSpeed="46.66" duration="41.00" routeLength="994.90" waitingTime="0.00" waitingCount="0" stopTime="0.00" timeLoss="22.61" rerouteNo="0" devices="tripinfo_f_0_1.3" vType="DEFAULT_VEHTYPE" speedFactor="0.99" vaporized=""/>
    <tripinfo id="f_0_1.4" depart="52.00" departLane="4i_0" departPos="5.10" departSpeed="0.00" departDelay="5.00" arrival="91.00" arrivalLane="3o_1" arrivalPos="489.60" arrivalSpeed="45.01" duration="39.00" routeLength="994.90" waitingTime="0.00" waitingCount="0" stopTime="0.00" timeLoss="20.90" rerouteNo="0" devices="tripinfo_f_0_1.4" vType="DEFAULT_VEHTYPE" speedFactor="0.93" vaporized=""/>
    <tripinfo id="f_0_1.5" depart="55.00" departLane="4i_0" departPos="5.10" departSpeed="0.00" departDelay="7.00" arrival="93.00" arrivalLane="3o_1" arrivalPos="489.60" arrivalSpeed="48.42" duration="38.00" routeLength="994.90" waitingTime="0.00" waitingCount="0" stopTime="0.00" timeLoss="18.27" rerouteNo="0" devices="tripinfo_f_0_1.5" vType="DEFAULT_VEHTYPE" speedFactor="0.88" vaporized=""/>
    <tripinfo id="f_0_1.6" depart="58.00" departLane="4i_0" departPos="5.10" departSpeed="0.00" departDelay="9.00" arrival="94.00" arrivalLane="3o_1" arrivalPos="489.60" arrivalSpeed="48.66" duration="36.00" routeLength="994.90" waitingTime="0.00" waitingCount="0" stopTime="0.00" timeLoss="17.73" rerouteNo="0" devices="tripinfo_f_0_1.6" vType="DEFAULT_VEHTYPE" speedFactor="0.94" vaporized=""/>
    <tripinfo id="f_0_1.8" depart="64.00" departLane="4i_0" departPos="5.10" departSpeed="0.00" departDelay="12.00" arrival="114.00" arrivalLane="3o_1" arrivalPos="489.60" arrivalSpeed="46.64" duration="50.00" routeLength="994.90" waitingTime="0.00" waitingCount="0" stopTime="0.00" timeLoss="31.36" rerouteNo="0" devices="tripinfo_f_0_1.8" vType="DEFAULT_VEHTYPE" speedFactor="1.16" vaporized=""/>
    <tripinfo id="f_0_1.7" depart="61.00" departLane="4i_0" departPos="5.10" departSpeed="0.00" departDelay="11.00" arrival="115.00" arrivalLane="3o_0" arrivalPos="489.60" arrivalSpeed="42.65" duration="54.00" routeLength="994.90" waitingTime="2.00" waitingCount="1" stopTime="0.00" timeLoss="35.75" rerouteNo="0" devices="tripinfo_f_0_1.7" vType="DEFAULT_VEHTYPE" speedFactor="0.94" vaporized=""/>
    <tripinfo id="f_0_1.9" depart="67.00" departLane="4i_0" departPos="5.10" departSpeed="0.00" departDelay="14.00" arrival="116.00" arrivalLane="3o_1" arrivalPos="489.60" arrivalSpeed="43.92" duration="49.00" routeLength="994.90" waitingTime="0.00" waitingCount="0" stopTime="0.00" timeLoss="30.47" rerouteNo="0" devices="tripinfo_f_0_1.9" vType="DEFAULT_VEHTYPE" speedFactor="1.02" vaporized=""/>
    <tripinfo id="f_0_1.10" depart="70.00" departLane="4i_0" departPos="5.10" departSpeed="0.00" departDelay="16.00" arrival="117.00" arrivalLane="3o_1" arrivalPos="489.60" arrivalSpeed="43.63" duration="47.00" routeLength="994.90" waitingTime="0.00" waitingCount="0" stopTime="0.00" timeLoss="28.74" rerouteNo="0" devices="tripinfo_f_0_1.10" vType="DEFAULT_VEHTYPE" speedFactor="1.01" vaporized=""/>
    <tripinfo id="f_0_1.11" depart="73.00" departLane="4i_0" departPos="5.10" departSpeed="0.00" departDelay="17.00" arrival="118.00" arrivalLane="3o_0" arrivalPos="489.60" arrivalSpeed="45.50" duration="45.00" routeLength="994.90" waitingTime="0.00" waitingCount="0" stopTime="0.00" timeLoss="26.72" rerouteNo="0" devices="tripinfo_f_0_1.11" vType="DEFAULT_VEHTYPE" speedFactor="0.97" vaporized=""/>
    <tripinfo id="f_0_1.12" depart="76.00" departLane="4i_0" departPos="5.10" departSpeed="0.00" departDelay="18.00" arrival="119.00" arrivalLane="3o_1" arrivalPos="489.60" arrivalSpeed="44.19" duration="43.00" routeLength="994.90" waitingTime="0.00" waitingCount="0" stopTime="0.00" timeLoss="23.64" rerouteNo="0" devices="tripinfo_f_0_1.12" vType="DEFAULT_VEHTYPE" speedFactor="0.89" vaporized=""/>
    <tripinfo id="f_0_1.13" depart="79.00" departLane="4i_0" departPos="5.10" departSpeed="0.00" departDelay="14.00" arrival="120.00" arrivalLane="3o_1" arrivalPos="489.60" arrivalSpeed="45.31" duration="41.00" routeLength="994.90" waitingTime="0.00" waitingCount="0" stopTime="0.00" timeLoss="20.33" rerouteNo="0" devices="tripinfo_f_0_1.13" vType="DEFAULT_VEHTYPE" speedFactor="0.83" vaporized=""/>
    <tripinfo id="f_0_1.14" depart="82.00" departLane="4i_0" departPos="5.10" departSpeed="0.00" departDelay="14.00" arrival="121.00" arrivalLane="3o_1" arrivalPos="489.60" arrivalSpeed="44.88" duration="39.00" routeLength="994.90" waitingTime="0.00" waitingCount="0" stopTime="0.00" timeLoss="19.85" rerouteNo="0" devices="tripinfo_f_0_1.14" vType="DEFAULT_VEHTYPE" speedFactor="0.87" vaporized=""/>
    <tripinfo id="f_0_2.1" depart="83.00" departLane="2i_0" departPos="5.10" departSpeed="0.00" departDelay="1.00" arrival="134.00" arrivalLane="1o_1" arrivalPos="489.60" arrivalSpeed="44.85" duration="51.00" routeLength="994.90" waitingTime="0.00" waitingCount="0" stopTime="0.00" timeLoss="32.59" rerouteNo="0" devices="tripinfo_f_0_2.1" vType="DEFAULT_VEHTYPE" speedFactor="0.95" vaporized=""/>
    <tripinfo id="f_0_2.0" depart="80.00" departLane="2i_0" departPos="5.10" departSpeed="0.00" departDelay="0.00" arrival="135.00" arrivalLane="1o_0" arrivalPos="489.60" arrivalSpeed="44.06" duration="55.00" routeLength="994.90" waitingTime="4.00" waitingCount="1" stopTime="0.00" timeLoss="36.26" rerouteNo="0" devices="tripinfo_f_0_2.0" vType="DEFAULT_VEHTYPE" speedFactor="0.92" vaporized=""/>
    <tripinfo id="f_0_2.2" depart="86.00" departLane="2i_0" departPos="5.10" departSpeed="0.00" departDelay="3.00" arrival="136.00" arrivalLane="1o_1" arrivalPos="489.60" arrivalSpeed="46.71" duration="50.00" routeLength="994.90" waitingTime="0.00" waitingCount="0" stopTime="0.00" timeLoss="31.44" rerouteNo="0" devices="tripinfo_f_0_2.2" vType="DEFAULT_VEHTYPE" speedFactor="1.13" vaporized=""/>
    <tripinfo id="f_0_2.3" depart="89.00" departLane="2i_0" departPos="5.10" departSpeed="0.00" departDelay="5.00" arrival="137.00" arrivalLane="1o_1" arrivalPos="489.60" arrivalSpeed="43.46" duration="48.00" routeLength="994.90" waitingTime="0.00" waitingCount="0" stopTime="0.00" timeLoss="29.94" rerouteNo="0" devices="tripinfo_f_0_2.3" vType="DEFAULT_VEHTYPE" speedFactor="0.93" vaporized=""/>
    <tripinfo id="f_0_2.4" depart="92.00" departLane="2i_0" departPos="5.10" departSpeed="0.00" departDelay="5.00" arrival="137.00" arrivalLane="1o_0" arrivalPos="489.60" arrivalSpeed="44.83" duration="45.00" routeLength="994.90" waitingTime="0.00" waitingCount="0" stopTime="0.00" timeLoss="26.56" rerouteNo="0" devices="tripinfo_f_0_2.4" vType="DEFAULT_VEHTYPE" speedFactor="1.18" vaporized=""/>
    <tripinfo id="f_0_2.5" depart="95.00" departLane="2i_0" departPos="5.10" departSpeed="0.00" departDelay="7.00" arrival="139.00" arrivalLane="1o_1" arrivalPos="489.60" arrivalSpeed="45.76" duration="44.00" routeLength="994.90" waitingTime="0.00" waitingCount="0" stopTime="0.00" timeLoss="25.39" rerouteNo="0" devices="tripinfo_f_0_2.5" vType="DEFAULT_VEHTYPE" speedFactor="1.15" vaporized=""/>
    <tripinfo id="f_0_2.6" depart="98.00" departLane="2i_0" departPos="5.10" departSpeed="0.00" departDelay="8.00" arrival="140.00" arrivalLane="1o_0" arrivalPos="489.60" arrivalSpeed="44.14" duration="42.00" routeLength="994.90" waitingTime="0.00" waitingCount="0" stopTime="0.00" timeLoss="23.82" rerouteNo="0" devices="tripinfo_f_0_2.6" vType="DEFAULT_VEHTYPE" speedFactor="1.01" vaporized=""/>
    <tripinfo id="f_0_2.7" depart="101.00" departLane="2i_0" departPos="5.10" departSpeed="0.00" departDelay="10.00" arrival="140.00" arrivalLane="1o_1" arrivalPos="489.60" arrivalSpeed="45.22" duration="39.00" routeLength="994.90" waitingTime="0.00" waitingCount="0" stopTime="0.00" timeLoss="20.70" rerouteNo="0" devices="tripinfo_f_0_2.7" vType="DEFAULT_VEHTYPE" speedFactor="1.17" vaporized=""/>
    <tripinfo id="f_0_2.8" depart="104.00" departLane="2i_0" departPos="5.10" departSpeed="0.00" departDelay="12.00" arrival="141.00" arrivalLane="1o_1" arrivalPos="489.60" arrivalSpeed="45.51" duration="37.00" routeLength="994.90" waitingTime="0.00" waitingCount="0" stopTime="0.00" timeLoss="19.09" rerouteNo="0" devices="tripinfo_f_0_2.8" vType="DEFAULT_VEHTYPE" speedFactor="0.99" vaporized=""/>
    <tripinfo id="f_0_2.9" depart="107.00" departLane="2i_0" departPos="5.10" departSpeed="0.00" departDelay="13.00" arrival="143.00" arrivalLane="1o_0" arrivalPos="489.60" arrivalSpeed="48.76" duration="36.00" routeLength="994.90" waitingTime="0.00" waitingCount="0" stopTime="0.00" timeLoss="17.32" rerouteNo="0" devices="tripinfo_f_0_2.9" vType="DEFAULT_VEHTYPE" speedFactor="1.02" vaporized=""/>
    <tripinfo id="f_0_2.10" depart="110.00" departLane="2i_0" departPos="5.10" departSpeed="0.00" departDelay="15.00" arrival="143.00" arrivalLane="1o_1" arrivalPos="489.60" arrivalSpeed="51.31" duration="33.00" routeLength="994.90" waitingTime="0.00" waitingCount="0" stopTime="0.00" timeLoss="15.09" rerouteNo="0" devices="tripinfo_f_0_2.10" vType="DEFAULT_VEHTYPE" speedFactor="0.97" vaporized=""/>
    <tripinfo id="f_0_2.11" depart="113.00" departLane="2i_0" departPos="5.10" departSpeed="0.00" departDelay="17.00" arrival="145.00" arrivalLane="1o_0" arrivalPos="489.60" arrivalSpeed="54.78" duration="32.00" routeLength="994.90" waitingTime="0.00" waitingCount="0" stopTime="0.00" timeLoss="13.95" rerouteNo="0" devices="tripinfo_f_0_2.11" vType="DEFAULT_VEHTYPE" speedFactor="1.18" vaporized=""/>
    <tripinfo id="f_0_2.12" depart="116.00" departLane="2i_0" departPos="5.10" departSpeed="0.00" departDelay="19.00" arrival="149.00" arrivalLane="1o_0" arrivalPos="489.60" arrivalSpeed="55.09" duration="33.00" routeLength="994.90" waitingTime="0.00" waitingCount="0" stopTime="0.00" timeLoss="14.32" rerouteNo="0" devices="tripinfo_f_0_2.12" vType="DEFAULT_VEHTYPE" speedFactor="1.10" vaporized=""/>
    <tripinfo id="f_0_2.13" depart="119.00" departLane="2i_0" departPos="5.10" departSpeed="0.00" departDelay="20.00" arrival="152.00" arrivalLane="1o_0" arrivalPos="489.60" arrivalSpeed="52.89" duration="33.00" routeLength="994.90" waitingTime="0.00" waitingCount="0" stopTime="0.00" timeLoss="13.68" rerouteNo="0" devices="tripinfo_f_0_2.13" vType="DEFAULT_VEHTYPE" speedFactor="0.90" vaporized=""/>
    <tripinfo id="f_0_2.14" depart="122.00" departLane="2i_0" departPos="5.10" departSpeed="0.00" departDelay="22.00" arrival="155.00" arrivalLane="1o_0" arrivalPos="489.60" arrivalSpeed="54.49" duration="33.00" routeLength="994.90" waitingTime="0.00" waitingCount="0" stopTime="0.00" timeLoss="14.22" rerouteNo="0" devices="tripinfo_f_0_2.14" vType="DEFAULT_VEHTYPE" speedFactor="1.03" vaporized=""/>
    <tripinfo id="f_0_2.15" depart="124.00" departLane="2i_0" departPos="5.10" departSpeed="0.00" departDelay="23.00" arrival="157.00" arrivalLane="1o_0" arrivalPos="489.60" arrivalSpeed="55.39" duration="33.00" routeLength="994.90" waitingTime="0.00" waitingCount="0" stopTime="0.00" timeLoss="14.34" rerouteNo="0" devices="tripinfo_f_0_2.15" vType="DEFAULT_VEHTYPE" speedFactor="0.96" vaporized=""/>
    <tripinfo id="f_0_2.16" depart="127.00" departLane="2i_0" departPos="5.10" departSpeed="0.00" departDelay="22.00" arrival="161.00" arrivalLane="1o_0" arrivalPos="489.60" arrivalSpeed="54.84" duration="34.00" routeLength="994.90" waitingTime="1.00" waitingCount="1" stopTime="0.00" timeLoss="15.31" rerouteNo="0" devices="tripinfo_f_0_2.16" vType="DEFAULT_VEHTYPE" speedFactor="1.09" vaporized=""/>
    <tripinfo id="f_0_3.0" depart="120.00" departLane="3i_0" departPos="5.10" departSpeed="0.00" departDelay="0.00" arrival="175.00" arrivalLane="4o_0" arrivalPos="489.60" arrivalSpeed="46.62" duration="55.00" routeLength="994.90" waitingTime="6.00" waitingCount="1" stopTime="0.00" timeLoss="36.41" rerouteNo="0" devices="tripinfo_f_0_3.0" vType="DEFAULT_VEHTYPE" speedFactor="1.04" vaporized=""/>
    <tripinfo id="f_0_3.1" depart="123.00" departLane="3i_0" departPos="5.10" departSpeed="0.00" departDelay="1.00" arrival="175.00" arrivalLane="4o_1" arrivalPos="489.60" arrivalSpeed="44.60" duration="52.00" routeLength="994.90" waitingTime="3.00" waitingCount="1" stopTime="0.00" timeLoss="33.53" rerouteNo="0" devices="tripinfo_f_0_3.1" vType="DEFAULT_VEHTYPE" speedFactor="1.09" vaporized=""/>
    <tripinfo id="f_0_3.2" depart="126.00" departLane="3i_0" departPos="5.10" departSpeed="0.00" departDelay="3.00" arrival="177.00" arrivalLane="4o_1" arrivalPos="489.60" arrivalSpeed="44.69" duration="51.00" routeLength="994.90" waitingTime="0.00" waitingCount="0" stopTime="0.00" timeLoss="32.68" rerouteNo="0" devices="tripinfo_f_0_3.2" vType="DEFAULT_VEHTYPE" speedFactor="1.00" vaporized=""/>
    <tripinfo id="f_0_2.17" depart="131.00" departLane="2i_0" departPos="5.10" departSpeed="0.00" departDelay="22.00" arrival="183.00" arrivalLane="1o_0" arrivalPos="489.60" arrivalSpeed="43.80" duration="52.00" routeLength="994.90" waitingTime="1.00" waitingCount="1" stopTime="0.00" timeLoss="33.67" rerouteNo="0" devices="tripinfo_f_0_2.17" vType="DEFAULT_VEHTYPE" speedFactor="1.04" vaporized=""/>
    <tripinfo id="f_0_3.4" depart="135.00" departLane="3i_0" departPos="5.10" departSpeed="0.00" departDelay="0.00" arrival="192.00" arrivalLane="4o_0" arrivalPos="489.60" arrivalSpeed="43.51" duration="57.00" routeLength="994.90" waitingTime="3.00" waitingCount="1" stopTime="0.00" timeLoss="37.84" rerouteNo="0" devices="tripinfo_f_0_3.4" vType="DEFAULT_VEHTYPE" speedFactor="0.88" vaporized=""/>
    <tripinfo id="f_0_3.3" depart="129.00" departLane="3i_0" departPos="5.10" departSpeed="0.00" departDelay="5.00" arrival="193.00" arrivalLane="4o_1" arrivalPos="489.60" arrivalSpeed="42.91" duration="64.00" routeLength="994.90" waitingTime="8.00" waitingCount="1" stopTime="0.00" timeLoss="45.02" rerouteNo="0" devices="tripinfo_f_0_3.3" vType="DEFAULT_VEHTYPE" speedFactor="0.90" vaporized=""/>
    <tripinfo id="f_0_3.5" depart="138.00" departLane="3i_0" departPos="5.10" departSpeed="0.00" departDelay="2.00" arrival="194.00" arrivalLane="4o_0" arrivalPos="489.60" arrivalSpeed="43.09" duration="56.00" routeLength="994.90" waitingTime="2.00" waitingCount="1" stopTime="0.00" timeLoss="35.88" rerouteNo="0" devices="tripinfo_f_0_3.5" vType="DEFAULT_VEHTYPE" speedFactor="0.85" vaporized=""/>
    <tripinfo id="f_0_3.6" depart="141.00" departLane="3i_0" departPos="5.10" departSpeed="0.00" departDelay="4.00" arrival="194.00" arrivalLane="4o_1" arrivalPos="489.60" arrivalSpeed="42.16" duration="53.00" routeLength="994.90" waitingTime="0.00" waitingCount="0" stopTime="0.00" timeLoss="33.29" rerouteNo="0" devices="tripinfo_f_0_3.6" vType="DEFAULT_VEHTYPE" speedFactor="0.85" vaporized=""/>
    <tripinfo id="f_0_3.7" depart="144.00" departLane="3i_0" departPos="5.10" departSpeed="0.00" departDelay="5.00" arrival="195.00" arrivalLane="4o_1" arrivalPos="489.60" arrivalSpeed="41.93" duration="51.00" routeLength="994.90" waitingTime="0.00" waitingCount="0" stopTime="0.00" timeLoss="33.05" rerouteNo="0" devices="tripinfo_f_0_3.7" vType="DEFAULT_VEHTYPE" speedFactor="1.17" vaporized=""/>
    <tripinfo id="f_0_3.9" depart="150.00" departLane="3i_0" departPos="5.10" departSpeed="0.00" departDelay="5.00" arrival="196.00" arrivalLane="4o_0" arrivalPos="489.60" arrivalSpeed="42.84" duration="46.00" routeLength="994.90" waitingTime="0.00" waitingCount="0" stopTime="0.00" timeLoss="27.82" rerouteNo="0" devices="tripinfo_f_0_3.9" vType="DEFAULT_VEHTYPE" speedFactor="1.10" vaporized=""/>
    <tripinfo id="f_0_3.8" depart="147.00" departLane="3i_0" departPos="5.10" departSpeed="0.00" departDelay="4.00" arrival="197.00" arrivalLane="4o_1" arrivalPos="489.60" arrivalSpeed="42.27" duration="50.00" routeLength="994.90" waitingTime="0.00" waitingCount="0" stopTime="0.00" timeLoss="31.53" rerouteNo="0" devices="tripinfo_f_0_3.8" vType="DEFAULT_VEHTYPE" speedFactor="1.02" vaporized=""/>
    <tripinfo id="f_0_3.10" depart="153.00" departLane="3i_0" departPos="5.10" departSpeed="0.00" departDelay="6.00" arrival="198.00" arrivalLane="4o_1" arrivalPos="489.60" arrivalSpeed="42.14" duration="45.00" routeLength="994.90" waitingTime="0.00" waitingCount="0" stopTime="0.00" timeLoss="27.02" rerouteNo="0" devices="tripinfo_f_0_3.10" vType="DEFAULT_VEHTYPE" speedFactor="1.00" vaporized=""/>
    <tripinfo id="f_0_3.11" depart="156.00" departLane="3i_0" departPos="5.10" departSpeed="0.00" departDelay="7.00" arrival="200.00" arrivalLane="4o_1" arrivalPos="489.60" arrivalSpeed="44.27" duration="44.00" routeLength="994.90" waitingTime="0.00" waitingCount="0" stopTime="0.00" timeLoss="25.54" rerouteNo="0" devices="tripinfo_f_0_3.11" vType="DEFAULT_VEHTYPE" speedFactor="1.00" vaporized=""/>
    <tripinfo id="f_1_2.0" depart="201.00" departLane="2i_0" departPos="5.10" departSpeed="0.00" departDelay="0.00" arrival="233.00" arrivalLane="1o_0" arrivalPos="489.60" arrivalSpeed="55.49" duration="32.00" routeLength="994.90" waitingTime="0.00" waitingCount="0" stopTime="0.00" timeLoss="14.04" rerouteNo="0" devices="tripinfo_f_1_2.0" vType="DEFAULT_VEHTYPE" speedFactor="1.14" vaporized=""/>
    <tripinfo id="f_1_3.1" depart="212.00" departLane="3i_0" departPos="5.10" departSpeed="0.00" departDelay="0.00" arrival="244.00" arrivalLane="4o_1" arrivalPos="489.60" arrivalSpeed="55.38" duration="32.00" routeLength="994.90" waitingTime="0.00" waitingCount="0" stopTime="0.00" timeLoss="13.23" rerouteNo="0" devices="tripinfo_f_1_3.1" vType="DEFAULT_VEHTYPE" speedFactor="0.94" vaporized=""/>
    <tripinfo id="f_1_3.0" depart="205.00" departLane="3i_0" departPos="5.10" departSpeed="0.00" departDelay="0.00" arrival="246.00" arrivalLane="4o_0" arrivalPos="489.60" arrivalSpeed="46.67" duration="41.00" routeLength="994.90" waitingTime="0.00" waitingCount="0" stopTime="0.00" timeLoss="23.00" rerouteNo="0" devices="tripinfo_f_1_3.0" vType="DEFAULT_VEHTYPE" speedFactor="0.97" vaporized=""/>
    <tripinfo id="f_1_3.2" depart="215.00" departLane="3i_0" departPos="5.10" departSpeed="0.00" departDelay="1.00" arrival="249.00" arrivalLane="4o_0" arrivalPos="489.60" arrivalSpeed="53.30" duration="34.00" routeLength="994.90" waitingTime="0.00" waitingCount="0" stopTime="0.00" timeLoss="14.90" rerouteNo="0" devices="tripinfo_f_1_3.2" vType="DEFAULT_VEHTYPE" speedFactor="0.91" vaporized=""/>
    <tripinfo id="f_1_1.1" depart="204.00" departLane="4i_0" departPos="5.10" departSpeed="0.00" departDelay="0.00" arrival="250.00" arrivalLane="3o_1" arrivalPos="489.60" arrivalSpeed="46.24" duration="46.00" routeLength="994.90" waitingTime="0.00" waitingCount="0" stopTime="0.00" timeLoss="27.46" rerouteNo="0" devices="tripinfo_f_1_1.1" vType="DEFAULT_VEHTYPE" speedFactor="1.02" vaporized=""/>
    <tripinfo id="f_1_1.0" depart="200.00" departLane="4i_0" departPos="5.10" departSpeed="0.00" departDelay="0.00" arrival="251.00" arrivalLane="3o_0" arrivalPos="489.60" arrivalSpeed="45.51" duration="51.00" routeLength="994.90" waitingTime="3.00" waitingCount="1" stopTime="0.00" timeLoss="32.38" rerouteNo="0" devices="tripinfo_f_1_1.0" vType="DEFAULT_VEHTYPE" speedFactor="0.90" vaporized=""/>
    <tripinfo id="f_1_1.2" depart="208.00" departLane="4i_0" departPos="5.10" departSpeed="0.00" departDelay="0.00" arrival="252.00" arrivalLane="3o_1" arrivalPos="489.60" arrivalSpeed="44.24" duration="44.00" routeLength="994.90" waitingTime="0.00" waitingCount="0" stopTime="0.00" timeLoss="25.36" rerouteNo="0" devices="tripinfo_f_1_1.2" vType="DEFAULT_VEHTYPE" speedFactor="1.08" vaporized=""/>
    <tripinfo id="f_1_2.2" depart="215.00" departLane="2i_0" departPos="5.10" departSpeed="0.00" departDelay="2.00" arrival="256.00" arrivalLane="1o_1" arrivalPos="489.60" arrivalSpeed="48.34" duration="41.00" routeLength="994.90" waitingTime="0.00" waitingCount="0" stopTime="0.00" timeLoss="21.72" rerouteNo="0" devices="tripinfo_f_1_2.2" vType="DEFAULT_VEHTYPE" speedFactor="0.88" vaporized=""/>
    <tripinfo id="f_1_2.3" depart="218.00" departLane="2i_0" departPos="5.10" departSpeed="0.00" departDelay="2.00" arrival="257.00" arrivalLane="1o_1" arrivalPos="489.60" arrivalSpeed="49.06" duration="39.00" routeLength="994.90" waitingTime="0.00" waitingCount="0" stopTime="0.00" timeLoss="20.91" rerouteNo="0" devices="tripinfo_f_1_2.3" vType="DEFAULT_VEHTYPE" speedFactor="1.02" vaporized=""/>
    <tripinfo id="f_1_2.4" depart="221.00" departLane="2i_0" departPos="5.10" departSpeed="0.00" departDelay="4.00" arrival="259.00" arrivalLane="1o_1" arrivalPos="489.60" arrivalSpeed="49.81" duration="38.00" routeLength="994.90" waitingTime="0.00" waitingCount="0" stopTime="0.00" timeLoss="19.35" rerouteNo="0" devices="tripinfo_f_1_2.4" vType="DEFAULT_VEHTYPE" speedFactor="0.97" vaporized=""/>
    <tripinfo id="f_1_0.1" depart="212.00" departLane="1i_0" departPos="5.10" departSpeed="0.00" departDelay="2.00" arrival="260.00" arrivalLane="2o_1" arrivalPos="489.60" arrivalSpeed="44.10" duration="48.00" routeLength="994.90" waitingTime="0.00" waitingCount="0" stopTime="0.00" timeLoss="29.96" rerouteNo="0" devices="tripinfo_f_1_0.1" vType="DEFAULT_VEHTYPE" speedFactor="1.02" vaporized=""/>
    <tripinfo id="f_1_2.5" depart="224.00" departLane="2i_0" departPos="5.10" departSpeed="0.00" departDelay="6.00" arrival="260.00" arrivalLane="1o_1" arrivalPos="489.60" arrivalSpeed="49.30" duration="36.00" routeLength="994.90" waitingTime="0.00" waitingCount="0" stopTime="0.00" timeLoss="17.77" rerouteNo="0" devices="tripinfo_f_1_2.5" vType="DEFAULT_VEHTYPE" speedFactor="0.94" vaporized=""/>
    <tripinfo id="f_1_2.1" depart="212.00" departLane="2i_0" departPos="5.10" departSpeed="0.00" departDelay="0.00" arrival="262.00" arrivalLane="1o_0" arrivalPos="489.60" arrivalSpeed="45.03" duration="50.00" routeLength="994.90" waitingTime="0.00" waitingCount="0" stopTime="0.00" timeLoss="31.63" rerouteNo="0" devices="tripinfo_f_1_2.1" vType="DEFAULT_VEHTYPE" speedFactor="0.99" vaporized=""/>
    <tripinfo id="f_1_0.2" depart="216.00" departLane="1i_0" departPos="5.10" departSpeed="0.00" departDelay="0.00" arrival="262.00" arrivalLane="2o_1" arrivalPos="489.60" arrivalSpeed="45.46" duration="46.00" routeLength="994.90" waitingTime="0.00" waitingCount="0" stopTime="0.00" timeLoss="27.43" rerouteNo="0" devices="tripinfo_f_1_0.2" vType="DEFAULT_VEHTYPE" speedFactor="1.04" vaporized=""/>
    <tripinfo id="f_1_2.6" depart="227.00" departLane="2i_0" departPos="5.10" departSpeed="0.00" departDelay="0.00" arrival="262.00" arrivalLane="1o_1" arrivalPos="489.60" arrivalSpeed="51.49" duration="35.00" routeLength="994.90" waitingTime="0.00" waitingCount="0" stopTime="0.00" timeLoss="16.17" rerouteNo="0" devices="tripinfo_f_1_2.6" vType="DEFAULT_VEHTYPE" speedFactor="1.02" vaporized=""/>
    <tripinfo id="f_1_0.0" depart="209.00" departLane="1i_0" departPos="5.10" departSpeed="0.00" departDelay="0.00" arrival="263.00" arrivalLane="2o_0" arrivalPos="489.60" arrivalSpeed="41.88" duration="54.00" routeLength="994.90" waitingTime="2.00" waitingCount="1" stopTime="0.00" timeLoss="35.88" rerouteNo="0" devices="tripinfo_f_1_0.0" vType="DEFAULT_VEHTYPE" speedFactor="1.12" vaporized=""/>