<?xml version="1.0" encoding="UTF-8"?>

<!-- generated on 2024-08-23 17:21:47 by Eclipse SUMO sumo Version 1.17.0
<configuration xmlns:xsi="http://www.w3.org/2001/XMLSchema-instance" xsi:noNamespaceSchemaLocation="http://sumo.dlr.de/xsd/sumoConfiguration.xsd">

    <input>
        <net-file value="project_no_lights.net.xml"/>
        <route-files value="project_1.rou.xml"/>
    </input>

    <output>
        <summary-output value="control_summaries\summary_project_no_lights_1.xml"/>
        <tripinfo-output value="control_summaries\tripinfos_project_no_lights_1.xml"/>
    </output>

    <processing>
        <time-to-teleport value="-1"/>
    </processing>

    <traci_server>
        <remote-port value="65260"/>
    </traci_server>

</configuration>
-->

<tripinfos xmlns:xsi="http://www.w3.org/2001/XMLSchema-instance" xsi:noNamespaceSchemaLocation="http://sumo.dlr.de/xsd/tripinfo_file.xsd">
    <tripinfo id="f_0_0.0" depart="2.00" departLane="1i_0" departPos="5.10" departSpeed="0.00" departDelay="0.00" arrival="48.00" arrivalLane="2o_0" arrivalPos="489.60" arrivalSpeed="46.22" duration="46.00" routeLength="994.90" waitingTime="0.00" waitingCount="0" stopTime="0.00" timeLoss="27.47" rerouteNo="0" devices="tripinfo_f_0_0.0" vType="DEFAULT_VEHTYPE" speedFactor="1.06" vaporized=""/>
    <tripinfo id="f_0_0.1" depart="5.00" departLane="1i_0" departPos="5.10" departSpeed="0.00" departDelay="0.00" arrival="50.00" arrivalLane="2o_1" arrivalPos="489.60" arrivalSpeed="45.94" duration="45.00" routeLength="994.90" waitingTime="0.00" waitingCount="0" stopTime="0.00" timeLoss="26.44" rerouteNo="0" devices="tripinfo_f_0_0.1" vType="DEFAULT_VEHTYPE" speedFactor="0.94" vaporized=""/>
    <tripinfo id="f_0_0.2" depart="10.00" departLane="1i_0" departPos="5.10" departSpeed="0.00" departDelay="0.00" arrival="55.00" arrivalLane="2o_1" arrivalPos="489.60" arrivalSpeed="43.38" duration="45.00" routeLength="994.90" waitingTime="0.00" waitingCount="0" stopTime="0.00" timeLoss="26.93" rerouteNo="0" devices="tripinfo_f_0_0.2" vType="DEFAULT_VEHTYPE" speedFactor="1.01" vaporized=""/>
    <tripinfo id="f_0_1.0" depart="26.00" departLane="4i_0" departPos="5.10" departSpeed="0.00" departDelay="0.00" arrival="57.00" arrivalLane="3o_0" arrivalPos="489.60" arrivalSpeed="55.50" duration="31.00" routeLength="994.90" waitingTime="0.00" waitingCount="0" stopTime="0.00" timeLoss="13.07" rerouteNo="0" devices="tripinfo_f_0_1.0" vType="DEFAULT_VEHTYPE" speedFactor="1.05" vaporized=""/>
    <tripinfo id="f_0_1.1" depart="29.00" departLane="4i_0" departPos="5.10" departSpeed="0.00" departDelay="2.00" arrival="61.00" arrivalLane="3o_0" arrivalPos="489.60" arrivalSpeed="52.37" duration="32.00" routeLength="994.90" waitingTime="0.00" waitingCount="0" stopTime="0.00" timeLoss="13.14" rerouteNo="0" devices="tripinfo_f_0_1.1" vType="DEFAULT_VEHTYPE" speedFactor="0.89" vaporized=""/>
    <tripinfo id="f_0_0.3" depart="16.00" departLane="1i_0" departPos="5.10" departSpeed="0.00" departDelay="0.00" arrival="63.00" arrivalLane="2o_1" arrivalPos="489.60" arrivalSpeed="46.41" duration="47.00" routeLength="994.90" waitingTime="0.00" waitingCount="0" stopTime="0.00" timeLoss="28.34" rerouteNo="0" devices="tripinfo_f_0_0.3" vType="DEFAULT_VEHTYPE" speedFactor="1.08" vaporized=""/>
    <tripinfo id="f_0_1.2" depart="32.00" departLane="4i_0" departPos="5.10" departSpeed="0.00" departDelay="3.00" arrival="64.00" arrivalLane="3o_0" arrivalPos="489.60" arrivalSpeed="50.28" duration="32.00" routeLength="994.90" waitingTime="0.00" waitingCount="0" stopTime="0.00" timeLoss="12.35" rerouteNo="0" devices="tripinfo_f_0_1.2" vType="DEFAULT_VEHTYPE" speedFactor="0.86" vaporized=""/>
    <tripinfo id="f_0_0.4" depart="20.00" departLane="1i_0" departPos="5.10" departSpeed="0.00" departDelay="0.00" arrival="76.00" arrivalLane="2o_0" arrivalPos="489.60" arrivalSpeed="45.30" duration="56.00" routeLength="994.90" waitingTime="7.00" waitingCount="1" stopTime="0.00" timeLoss="37.81" rerouteNo="0" devices="tripinfo_f_0_0.4" vType="DEFAULT_VEHTYPE" speedFactor="1.03" vaporized=""/>
    <tripinfo id="f_0_1.3" depart="42.00" departLane="4i_0" departPos="5.10" departSpeed="0.00" departDelay="0.00" arrival="76.00" arrivalLane="3o_0" arrivalPos="489.60" arrivalSpeed="51.99" duration="34.00" routeLength="994.90" waitingTime="0.00" waitingCount="0" stopTime="0.00" timeLoss="14.51" rerouteNo="0" devices="tripinfo_f_0_1.3" vType="DEFAULT_VEHTYPE" speedFactor="0.88" vaporized=""/>
    <tripinfo id="f_0_0.5" depart="25.00" departLane="1i_0" departPos="5.10" departSpeed="0.00" departDelay="0.00" arrival="77.00" arrivalLane="2o_0" arrivalPos="489.60" arrivalSpeed="41.75" duration="52.00" routeLength="994.90" waitingTime="0.00" waitingCount="0" stopTime="0.00" timeLoss="31.95" rerouteNo="0" devices="tripinfo_f_0_0.5" vType="DEFAULT_VEHTYPE" speedFactor="0.83" vaporized=""/>
    <tripinfo id="f_0_1.4" depart="45.00" departLane="4i_0" departPos="5.10" departSpeed="0.00" departDelay="0.00" arrival="77.00" arrivalLane="3o_1" arrivalPos="489.60" arrivalSpeed="55.32" duration="32.00" routeLength="994.90" waitingTime="0.00" waitingCount="0" stopTime="0.00" timeLoss="14.05" rerouteNo="0" devices="tripinfo_f_0_1.4" vType="DEFAULT_VEHTYPE" speedFactor="1.02" vaporized=""/>
    <tripinfo id="f_0_0.6" depart="29.00" departLane="1i_0" departPos="5.10" departSpeed="0.00" departDelay="0.00" arrival="78.00" arrivalLane="2o_1" arrivalPos="489.60" arrivalSpeed="43.42" duration="49.00" routeLength="994.90" waitingTime="0.00" waitingCount="0" stopTime="0.00" timeLoss="30.93" rerouteNo="0" devices="tripinfo_f_0_0.6" vType="DEFAULT_VEHTYPE" speedFactor="0.94" vaporized=""/>
    <tripinfo id="f_0_0.7" depart="32.00" departLane="1i_0" departPos="5.10" departSpeed="0.00" departDelay="0.00" arrival="80.00" arrivalLane="2o_0" arrivalPos="489.60" arrivalSpeed="45.34" duration="48.00" routeLength="994.90" waitingTime="0.00" waitingCount="0" stopTime="0.00" timeLoss="29.59" rerouteNo="0" devices="tripinfo_f_0_0.7" vType="DEFAULT_VEHTYPE" speedFactor="1.09" vaporized=""/>
    <tripinfo id="f_0_1.5" depart="51.00" departLane="4i_0" departPos="5.10" departSpeed="0.00" departDelay="0.00" arrival="83.00" arrivalLane="3o_0" arrivalPos="489.60" arrivalSpeed="52.83" duration="32.00" routeLength="994.90" waitingTime="0.00" waitingCount="0" stopTime="0.00" timeLoss="12.68" rerouteNo="0" devices="tripinfo_f_0_1.5" vType="DEFAULT_VEHTYPE" speedFactor="0.89" vaporized=""/>
    <tripinfo id="f_0_1.6" depart="56.00" departLane="4i_0" departPos="5.10" departSpeed="0.00" departDelay="0.00" arrival="88.00" arrivalLane="3o_0" arrivalPos="489.60" arrivalSpeed="48.75" duration="32.00" routeLength="994.90" waitingTime="0.00" waitingCount="0" stopTime="0.00" timeLoss="11.62" rerouteNo="0" devices="tripinfo_f_0_1.6" vType="DEFAULT_VEHTYPE" speedFactor="0.83" vaporized=""/>
    <tripinfo id="f_0_1.7" depart="59.00" departLane="4i_0" departPos="5.10" departSpeed="0.00" departDelay="1.00" arrival="92.00" arrivalLane="3o_0" arrivalPos="489.60" arrivalSpeed="52.03" duration="33.00" routeLength="994.90" waitingTime="0.00" waitingCount="0" stopTime="0.00" timeLoss="13.17" rerouteNo="0" devices="tripinfo_f_0_1.7" vType="DEFAULT_VEHTYPE" speedFactor="0.87" vaporized=""/>
    <tripinfo id="f_0_1.8" depart="62.00" departLane="4i_0" departPos="5.10" departSpeed="0.00" departDelay="2.00" arrival="94.00" arrivalLane="3o_0" arrivalPos="489.60" arrivalSpeed="54.28" duration="32.00" routeLength="994.90" waitingTime="0.00" waitingCount="0" stopTime="0.00" timeLoss="13.89" rerouteNo="0" devices="tripinfo_f_0_1.8" vType="DEFAULT_VEHTYPE" speedFactor="0.95" vaporized=""/>
    <tripinfo id="f_0_1.9" depart="69.00" departLane="4i_0" departPos="5.10" departSpeed="0.00" departDelay="0.00" arrival="104.00" arrivalLane="3o_0" arrivalPos="489.60" arrivalSpeed="54.09" duration="35.00" routeLength="994.90" waitingTime="0.00" waitingCount="0" stopTime="0.00" timeLoss="16.98" rerouteNo="0" devices="tripinfo_f_0_1.9" vType="DEFAULT_VEHTYPE" speedFactor="1.15" vaporized=""/>
    <tripinfo id="f_0_1.10" depart="73.00" departLane="4i_0" departPos="5.10" departSpeed="0.00" departDelay="0.00" arrival="104.00" arrivalLane="3o_1" arrivalPos="489.60" arrivalSpeed="55.29" duration="31.00" routeLength="994.90" waitingTime="0.00" waitingCount="0" stopTime="0.00" timeLoss="13.09" rerouteNo="0" devices="tripinfo_f_0_1.10" vType="DEFAULT_VEHTYPE" speedFactor="0.99" vaporized=""/>
    <tripinfo id="f_0_0.8" depart="35.00" departLane="1i_0" departPos="5.10" departSpeed="0.00" departDelay="1.00" arrival="107.00" arrivalLane="2o_1" arrivalPos="489.60" arrivalSpeed="45.59" duration="72.00" routeLength="994.90" waitingTime="21.00" waitingCount="1" stopTime="0.00" timeLoss="54.04" rerouteNo="0" devices="tripinfo_f_0_0.8" vType="DEFAULT_VEHTYPE" speedFactor="1.03" vaporized=""/>
    <tripinfo id="f_0_0.9" depart="39.00" departLane="1i_0" departPos="5.10" departSpeed="0.00" departDelay="0.00" arrival="107.00" arrivalLane="2o_0" arrivalPos="489.60" arrivalSpeed="45.45" duration="68.00" routeLength="994.90" waitingTime="18.00" waitingCount="1" stopTime="0.00" timeLoss="49.68" rerouteNo="0" devices="tripinfo_f_0_0.9" vType="DEFAULT_VEHTYPE" speedFactor="1.05" vaporized=""/>
    <tripinfo id="f_0_2.1" depart="43.00" departLane="2i_0" departPos="5.10" departSpeed="0.00" departDelay="1.00" arrival="108.00" arrivalLane="1o_0" arrivalPos="489.60" arrivalSpeed="43.84" duration="65.00" routeLength="994.90" waitingTime="14.00" waitingCount="1" stopTime="0.00" timeLoss="46.74" rerouteNo="0" devices="tripinfo_f_0_2.1" vType="DEFAULT_VEHTYPE" speedFactor="0.94" vaporized=""/>
    <tripinfo id="f_0_2.0" depart="40.00" departLane="2i_0" departPos="5.10" departSpeed="0.00" departDelay="0.00" arrival="109.00" arrivalLane="1o_0" arrivalPos="489.60" arrivalSpeed="41.28" duration="69.00" routeLength="994.90" waitingTime="19.00" waitingCount="1" stopTime="0.00" timeLoss="50.92" rerouteNo="0" devices="tripinfo_f_0_2.0" vType="DEFAULT_VEHTYPE" speedFactor="0.99" vaporized=""/>
    <tripinfo id="f_0_1.11" depart="77.00" departLane="4i_0" departPos="5.10" departSpeed="0.00" departDelay="0.00" arrival="110.00" arrivalLane="3o_0" arrivalPos="489.60" arrivalSpeed="54.97" duration="33.00" routeLength="994.90" waitingTime="0.00" waitingCount="0" stopTime="0.00" timeLoss="14.81" rerouteNo="0" devices="tripinfo_f_0_1.11" vType="DEFAULT_VEHTYPE" speedFactor="1.02" vaporized=""/>
    <tripinfo id="f_0_3.0" depart="80.00" departLane="3i_0" departPos="5.10" departSpeed="0.00" departDelay="0.00" arrival="112.00" arrivalLane="4o_0" arrivalPos="489.60" arrivalSpeed="54.42" duration="32.00" routeLength="994.90" waitingTime="0.00" waitingCount="0" stopTime="0.00" timeLoss="13.29" rerouteNo="0" devices="tripinfo_f_0_3.0" vType="DEFAULT_VEHTYPE" speedFactor="1.10" vaporized=""/>
    <tripinfo id="f_0_1.12" depart="80.00" departLane="4i_0" departPos="5.10" departSpeed="0.00" departDelay="0.00" arrival="113.00" arrivalLane="3o_0" arrivalPos="489.60" arrivalSpeed="54.52" duration="33.00" routeLength="994.90" waitingTime="0.00" waitingCount="0" stopTime="0.00" timeLoss="14.36" rerouteNo="0" devices="tripinfo_f_0_1.12" vType="DEFAULT_VEHTYPE" speedFactor="1.18" vaporized=""/>
    <tripinfo id="f_0_3.1" depart="83.00" departLane="3i_0" departPos="5.10" departSpeed="0.00" departDelay="2.00" arrival="114.00" arrivalLane="4o_0" arrivalPos="489.60" arrivalSpeed="54.51" duration="31.00" routeLength="994.90" waitingTime="0.00" waitingCount="0" stopTime="0.00" timeLoss="12.67" rerouteNo="0" devices="tripinfo_f_0_3.1" vType="DEFAULT_VEHTYPE" speedFactor="1.03" vaporized=""/>
    <tripinfo id="f_0_1.13" depart="83.00" departLane="4i_0" departPos="5.10" departSpeed="0.00" departDelay="0.00" arrival="116.00" arrivalLane="3o_0" arrivalPos="489.60" arrivalSpeed="55.41" duration="33.00" routeLength="994.90" waitingTime="0.00" waitingCount="0" stopTime="0.00" timeLoss="14.18" rerouteNo="0" devices="tripinfo_f_0_1.13" vType="DEFAULT_VEHTYPE" speedFactor="0.96" vaporized=""/>
    <tripinfo id="f_0_1.14" depart="86.00" departLane="4i_0" departPos="5.10" departSpeed="0.00" departDelay="1.00" arrival="118.00" arrivalLane="3o_0" arrivalPos="489.60" arrivalSpeed="55.01" duration="32.00" routeLength="994.90" waitingTime="0.00" waitingCount="0" stopTime="0.00" timeLoss="13.88" rerouteNo="0" devices="tripinfo_f_0_1.14" vType="DEFAULT_VEHTYPE" speedFactor="1.09" vaporized=""/>
    <tripinfo id="f_0_3.2" depart="86.00" departLane="3i_0" departPos="5.10" departSpeed="0.00" departDelay="1.00" arrival="118.00" arrivalLane="4o_0" arrivalPos="489.60" arrivalSpeed="54.76" duration="32.00" routeLength="994.90" waitingTime="0.00" waitingCount="0" stopTime="0.00" timeLoss="13.52" rerouteNo="0" devices="tripinfo_f_0_3.2" vType="DEFAULT_VEHTYPE" speedFactor="1.04" vaporized=""/>
    <tripinfo id="f_0_3.3" depart="89.00" departLane="3i_0" departPos="5.10" departSpeed="0.00" departDelay="3.00" arrival="121.00" arrivalLane="4o_0" arrivalPos="489.60" arrivalSpeed="54.89" duration="32.00" routeLength="994.90" waitingTime="0.00" waitingCount="0" stopTime="0.00" timeLoss="13.37" rerouteNo="0" devices="tripinfo_f_0_3.3" vType="DEFAULT_VEHTYPE" speedFactor="1.04" vaporized=""/>
    <tripinfo id="f_0_1.15" depart="89.00" departLane="4i_0" departPos="5.10" departSpeed="0.00" departDelay="2.00" arrival="121.00" arrivalLane="3o_0" arrivalPos="489.60" arrivalSpeed="54.70" duration="32.00" routeLength="994.90" waitingTime="0.00" waitingCount="0" stopTime="0.00" timeLoss="13.76" rerouteNo="0" devices="tripinfo_f_0_1.15" vType="DEFAULT_VEHTYPE" speedFactor="1.09" vaporized=""/>
    <tripinfo id="f_0_3.4" depart="92.00" departLane="3i_0" departPos="5.10" departSpeed="0.00" departDelay="5.00" arrival="124.00" arrivalLane="4o_0" arrivalPos="489.60" arrivalSpeed="55.30" duration="32.00" routeLength="994.90" waitingTime="0.00" waitingCount="0" stopTime="0.00" timeLoss="13.42" rerouteNo="0" devices="tripinfo_f_0_3.4" vType="DEFAULT_VEHTYPE" speedFactor="1.00" vaporized=""/>
    <tripinfo id="f_0_1.16" depart="92.00" departLane="4i_0" departPos="5.10" departSpeed="0.00" departDelay="2.00" arrival="125.00" arrivalLane="3o_0" arrivalPos="489.60" arrivalSpeed="50.40" duration="33.00" routeLength="994.90" waitingTime="0.00" waitingCount="0" stopTime="0.00" timeLoss="12.80" rerouteNo="0" devices="tripinfo_f_0_1.16" vType="DEFAULT_VEHTYPE" speedFactor="0.85" vaporized=""/>
    <tripinfo id="f_0_3.5" depart="95.00" departLane="3i_0" departPos="5.10" departSpeed="0.00" departDelay="6.00" arrival="127.00" arrivalLane="4o_0" arrivalPos="489.60" arrivalSpeed="52.50" duration="32.00" routeLength="994.90" waitingTime="0.00" waitingCount="0" stopTime="0.00" timeLoss="12.72" rerouteNo="0" devices="tripinfo_f_0_3.5" vType="DEFAULT_VEHTYPE" speedFactor="0.88" vaporized=""/>
    <tripinfo id="f_0_1.17" depart="96.00" departLane="4i_0" departPos="5.10" departSpeed="0.00" departDelay="0.00" arrival="128.00" arrivalLane="3o_0" arrivalPos="489.60" arrivalSpeed="54.58" duration="32.00" routeLength="994.90" waitingTime="0.00" waitingCount="0" stopTime="0.00" timeLoss="13.38" rerouteNo="0" devices="tripinfo_f_0_1.17" vType="DEFAULT_VEHTYPE" speedFactor="1.00" vaporized=""/>
    <tripinfo id="f_0_3.6" depart="98.00" departLane="3i_0" departPos="5.10" departSpeed="0.00" departDelay="3.00" arrival="130.00" arrivalLane="4o_0" arrivalPos="489.60" arrivalSpeed="55.43" duration="32.00" routeLength="994.90" waitingTime="0.00" waitingCount="0" stopTime="0.00" timeLoss="13.77" rerouteNo="0" devices="tripinfo_f_0_3.6" vType="DEFAULT_VEHTYPE" speedFactor="1.02" vaporized=""/>
    <tripinfo id="f_0_0.10" depart="42.00" departLane="1i_0" departPos="5.10" departSpeed="0.00" departDelay="2.00" arrival="143.00" arrivalLane="2o_1" arrivalPos="489.60" arrivalSpeed="45.69" duration="101.00" routeLength="994.90" waitingTime="47.00" waitingCount="2" stopTime="0.00" timeLoss="82.41" rerouteNo="0" devices="tripinfo_f_0_0.10" vType="DEFAULT_VEHTYPE" speedFactor="1.12" vaporized=""/>
    <tripinfo id="f_0_0.11" depart="45.00" departLane="1i_0" departPos="5.10" departSpeed="0.00" departDelay="4.00" arrival="143.00" arrivalLane="2o_0" arrivalPos="489.60" arrivalSpeed="44.53" duration="98.00" routeLength="994.90" waitingTime="38.00" waitingCount="2" stopTime="0.00" timeLoss="79.71" rerouteNo="0" devices="tripinfo_f_0_0.11" vType="DEFAULT_VEHTYPE" speedFactor="0.93" vaporized=""/>
    <tripinfo id="f_0_2.3" depart="50.00" departLane="2i_0" departPos="5.10" departSpeed="0.00" departDelay="0.00" arrival="143.00" arrivalLane="1o_1" arrivalPos="489.60" arrivalSpeed="46.57" duration="93.00" routeLength="994.90" waitingTime="39.00" waitingCount="2" stopTime="0.00" timeLoss="74.64" rerouteNo="0" devices="tripinfo_f_0_2.3" vType="DEFAULT_VEHTYPE" speedFactor="0.97" vaporized=""/>
    <tripinfo id="f_0_0.12" depart="48.00" departLane="1i_0" departPos="5.10" departSpeed="0.00" departDelay="4.00" arrival="144.00" arrivalLane="2o_1" arrivalPos="489.60" arrivalSpeed="44.26" duration="96.00" routeLength="994.90" waitingTime="42.00" waitingCount="2" stopTime="0.00" timeLoss="77.96" rerouteNo="0" devices="tripinfo_f_0_0.12" vType="DEFAULT_VEHTYPE" speedFactor="0.94" vaporized=""/>
    <tripinfo id="f_0_2.2" depart="46.00" departLane="2i_0" departPos="5.10" departSpeed="0.00" departDelay="1.00" arrival="144.00" arrivalLane="1o_0" arrivalPos="489.60" arrivalSpeed="43.52" duration="98.00" routeLength="994.90" waitingTime="43.00" waitingCount="2" stopTime="0.00" timeLoss="80.06" rerouteNo="0" devices="tripinfo_f_0_2.2" vType="DEFAULT_VEHTYPE" speedFactor="1.01" vaporized=""/>
    <tripinfo id="f_0_0.13" depart="51.00" departLane="1i_0" departPos="5.10" departSpeed="0.00" departDelay="6.00" arrival="145.00" arrivalLane="2o_0" arrivalPos="489.60" arrivalSpeed="42.67" duration="94.00" routeLength="994.90" waitingTime="33.00" waitingCount="2" stopTime="0.00" timeLoss="75.64" rerouteNo="0" devices="tripinfo_f_0_0.13" vType="DEFAULT_VEHTYPE" speedFactor="1.16" vaporized=""/>
    <tripinfo id="f_0_2.4" depart="65.00" departLane="2i_0" departPos="5.10" departSpeed="0.00" departDelay="0.00" arrival="145.00" arrivalLane="1o_1" arrivalPos="489.60" arrivalSpeed="44.92" duration="80.00" routeLength="994.90" waitingTime="28.00" waitingCount="1" stopTime="0.00" timeLoss="61.96" rerouteNo="0" devices="tripinfo_f_0_2.4" vType="DEFAULT_VEHTYPE" speedFactor="0.93" vaporized=""/>
    <tripinfo id="f_0_0.14" depart="59.00" departLane="1i_0" departPos="5.10" departSpeed="0.00" departDelay="0.00" arrival="146.00" arrivalLane="2o_1" arrivalPos="489.60" arrivalSpeed="45.80" duration="87.00" routeLength="994.90" waitingTime="32.00" waitingCount="2" stopTime="0.00" timeLoss="68.40" rerouteNo="0" devices="tripinfo_f_0_0.14" vType="DEFAULT_VEHTYPE" speedFactor="0.92" vaporized=""/>
    <tripinfo id="f_0_2.5" depart="68.00" departLane="2i_0" departPos="5.10" departSpeed="0.00" departDelay="1.00" arrival="146.00" arrivalLane="1o_0" arrivalPos="489.60" arrivalSpeed="42.80" duration="78.00" routeLength="994.90" waitingTime="21.00" waitingCount="1" stopTime="0.00" timeLoss="59.68" rerouteNo="0" devices="tripinfo_f_0_2.5" vType="DEFAULT_VEHTYPE" speedFactor="1.18" vaporized=""/>
    <tripinfo id="f_0_0.15" depart="62.00" departLane="1i_0" departPos="5.10" departSpeed="0.00" departDelay="0.00" arrival="147.00" arrivalLane="2o_0" arrivalPos="489.60" arrivalSpeed="45.13" duration="85.00" routeLength="994.90" waitingTime="25.00" waitingCount="1" stopTime="0.00" timeLoss="66.64" rerouteNo="0" devices="tripinfo_f_0_0.15" vType="DEFAULT_VEHTYPE" speedFactor="1.13" vaporized=""/>
    <tripinfo id="f_0_2.6" depart="79.00" departLane="2i_0" departPos="5.10" departSpeed="0.00" departDelay="0.00" arrival="147.00" arrivalLane="1o_1" arrivalPos="489.60" arrivalSpeed="44.68" duration="68.00" routeLength="994.90" waitingTime="15.00" waitingCount="1" stopTime="0.00" timeLoss="49.71" rerouteNo="0" devices="tripinfo_f_0_2.6" vType="DEFAULT_VEHTYPE" speedFactor="0.97" vaporized=""/>
    <tripinfo id="f_0_2.7" depart="92.00" departLane="2i_0" departPos="5.10" departSpeed="0.00" departDelay="0.00" arrival="148.00" arrivalLane="1o_0" arrivalPos="489.60" arrivalSpeed="44.05" duration="56.00" routeLength="994.90" waitingTime="1.00" waitingCount="1" stopTime="0.00" timeLoss="36.23" rerouteNo="0" devices="tripinfo_f_0_2.7" vType="DEFAULT_VEHTYPE" speedFactor="0.85" vaporized=""/>
    <tripinfo id="f_0_2.8" depart="97.00" departLane="2i_0" departPos="5.10" departSpeed="0.00" departDelay="0.00" arrival="148.00" arrivalLane="1o_1" arrivalPos="489.60" arrivalSpeed="42.97" duration="51.00" routeLength="994.90" waitingTime="0.00" waitingCount="0" stopTime="0.00" timeLoss="33.09" rerouteNo="0" devices="tripinfo_f_0_2.8" vType="DEFAULT_VEHTYPE" speedFactor="1.00" vaporized=""/>
    <tripinfo id="f_0_0.17" depart="74.00" departLane="1i_0" departPos="5.10" departSpeed="0.00" departDelay="2.00" arrival="149.00" arrivalLane="2o_0" arrivalPos="489.60" arrivalSpeed="44.90" duration="75.00" routeLength="994.90" waitingTime="17.00" waitingCount="1" stopTime="0.00" timeLoss="56.66" rerouteNo="0" devices="tripinfo_f_0_0.17" vType="DEFAULT_VEHTYPE" speedFactor="1.17" vaporized=""/>
    <tripinfo id="f_0_0.16" depart="71.00" departLane="1i_0" departPos="5.10" departSpeed="0.00" departDelay="0.00" arrival="150.00" arrivalLane="2o_1" arrivalPos="489.60" arrivalSpeed="45.18" duration="79.00" routeLength="994.90" waitingTime="25.00" waitingCount="1" stopTime="0.00" timeLoss="60.56" rerouteNo="0" devices="tripinfo_f_0_0.16" vType="DEFAULT_VEHTYPE" speedFactor="1.01" vaporized=""/>
    <tripinfo id="f_0_0.18" depart="81.00" departLane="1i_0" departPos="5.10" departSpeed="0.00" departDelay="0.00" arrival="151.00" arrivalLane="2o_1" arrivalPos="489.60" arrivalSpeed="44.52" duration="70.00" routeLength="994.90" waitingTime="16.00" waitingCount="1" stopTime="0.00" timeLoss="51.58" rerouteNo="0" devices="tripinfo_f_0_0.18" vType="DEFAULT_VEHTYPE" speedFactor="0.90" vaporized=""/>
    <tripinfo id="f_0_0.19" depart="89.00" departLane="1i_0" departPos="5.10" departSpeed="0.00" departDelay="0.00" arrival="152.00" arrivalLane="2o_0" arrivalPos="489.60" arrivalSpeed="44.03" duration="63.00" routeLength="994.90" waitingTime="7.00" waitingCount="1" stopTime="0.00" timeLoss="44.25" rerouteNo="0" devices="tripinfo_f_0_0.19" vType="DEFAULT_VEHTYPE" speedFactor="0.90" vaporized=""/>
    <tripinfo id="f_0_0.20" depart="95.00" departLane="1i_0" departPos="5.10" departSpeed="0.00" departDelay="0.00" arrival="153.00" arrivalLane="2o_1" arrivalPos="489.60" arrivalSpeed="44.35" duration="58.00" routeLength="994.90" waitingTime="4.00" waitingCount="1" stopTime="0.00" timeLoss="39.79" rerouteNo="0" devices="tripinfo_f_0_0.20" vType="DEFAULT_VEHTYPE" speedFactor="1.17" vaporized=""/>
    <tripinfo id="f_0_0.21" depart="98.00" departLane="1i_0" departPos="5.10" departSpeed="0.00" departDelay="2.00" arrival="154.00" arrivalLane="2o_0" arrivalPos="489.60" arrivalSpeed="44.42" duration="56.00" routeLength="994.90" waitingTime="0.00" waitingCount="0" stopTime="0.00" timeLoss="37.53" rerouteNo="0" devices="tripinfo_f_0_0.21" vType="DEFAULT_VEHTYPE" speedFactor="1.10" vaporized=""/>
    <tripinfo id="f_1_3.0" depart="150.00" departLane="3i_0" departPos="5.10" departSpeed="0.00" departDelay="0.00" arrival="183.00" arrivalLane="4o_0" arrivalPos="489.60" arrivalSpeed="55.02" duration="33.00" routeLength="994.90" waitingTime="0.00" waitingCount="0" stopTime="0.00" timeLoss="14.60" rerouteNo="0" devices="tripinfo_f_1_3.0" vType="DEFAULT_VEHTYPE" speedFactor="1.14" vaporized=""/>
    <tripinfo id="f_1_3.1" depart="153.00" departLane="3i_0" departPos="5.10" departSpeed="0.00" departDelay="1.00" arrival="185.00" arrivalLane="4o_0" arrivalPos="489.60" arrivalSpeed="54.76" duration="32.00" routeLength="994.90" waitingTime="0.00" waitingCount="0" stopTime="0.00" timeLoss="13.99" rerouteNo="0" devices="tripinfo_f_1_3.1" vType="DEFAULT_VEHTYPE" speedFactor="1.02" vaporized=""/>
    <tripinfo id="f_1_3.2" depart="160.00" departLane="3i_0" departPos="5.10" departSpeed="0.00" departDelay="0.00" arrival="194.00" arrivalLane="4o_0" arrivalPos="489.60" arrivalSpeed="54.81" duration="34.00" routeLength="994.90" waitingTime="0.00" waitingCount="0" stopTime="0.00" timeLoss="15.57" rerouteNo="0" devices="tripinfo_f_1_3.2" vType="DEFAULT_VEHTYPE" speedFactor="1.12" vaporized=""/>
    <tripinfo id="f_1_3.3" depart="163.00" departLane="3i_0" departPos="5.10" departSpeed="0.00" departDelay="1.00" arrival="195.00" arrivalLane="4o_1" arrivalPos="489.60" arrivalSpeed="54.79" duration="32.00" routeLength="994.90" waitingTime="0.00" waitingCount="0" stopTime="0.00" timeLoss="13.97" rerouteNo="0" devices="tripinfo_f_1_3.3" vType="DEFAULT_VEHTYPE" speedFactor="0.99" vaporized=""/>
    <tripinfo id="f_1_2.0" depart="150.00" departLane="2i_0" departPos="5.10" departSpeed="0.00" departDelay="0.00" arrival="197.00" arrivalLane="1o_0" arrivalPos="489.60" arrivalSpeed="46.14" duration="47.00" routeLength="994.90" waitingTime="0.00" waitingCount="0" stopTime="0.00" timeLoss="28.09" rerouteNo="0" devices="tripinfo_f_1_2.0" vType="DEFAULT_VEHTYPE" speedFactor="0.90" vaporized=""/>
    <tripinfo id="f_1_2.1" depart="153.00" departLane="2i_0" departPos="5.10" departSpeed="0.00" departDelay="0.00" arrival="197.00" arrivalLane="1o_1" arrivalPos="489.60" arrivalSpeed="46.13" duration="44.00" routeLength="994.90" waitingTime="0.00" waitingCount="0" stopTime="0.00" timeLoss="25.66" rerouteNo="0" devices="tripinfo_f_1_2.1" vType="DEFAULT_VEHTYPE" speedFactor="0.97" vaporized=""/>
    <tripinfo id="f_1_3.4" depart="166.00" departLane="3i_0" departPos="5.10" departSpeed="0.00" departDelay="3.00" arrival="198.00" arrivalLane="4o_0" arrivalPos="489.60" arrivalSpeed="52.82" duration="32.00" routeLength="994.90" waitingTime="0.00" waitingCount="0" stopTime="0.00" timeLoss="12.29" rerouteNo="0" devices="tripinfo_f_1_3.4" vType="DEFAULT_VEHTYPE" speedFactor="0.88" vaporized=""/>
    <tripinfo id="f_1_3.5" depart="169.00" departLane="3i_0" departPos="5.10" departSpeed="0.00" departDelay="2.00" arrival="201.00" arrivalLane="4o_0" arrivalPos="489.60" arrivalSpeed="55.08" duration="32.00" routeLength="994.90" waitingTime="0.00" waitingCount="0" stopTime="0.00" timeLoss="13.72" rerouteNo="0" devices="tripinfo_f_1_3.5" vType="DEFAULT_VEHTYPE" speedFactor="1.04" vaporized=""/>
    <tripinfo id="f_1_1.0" depart="171.00" departLane="4i_0" departPos="5.10" departSpeed="0.00" departDelay="0.00" arrival="204.00" arrivalLane="3o_0" arrivalPos="489.60" arrivalSpeed="55.13" duration="33.00" routeLength="994.90" waitingTime="0.00" waitingCount="0" stopTime="0.00" timeLoss="14.60" rerouteNo="0" devices="tripinfo_f_1_1.0" vType="DEFAULT_VEHTYPE" speedFactor="1.06" vaporized=""/>
    <tripinfo id="f_1_3.6" depart="172.00" departLane="3i_0" departPos="5.10" departSpeed="0.00" departDelay="4.00" arrival="205.00" arrivalLane="4o_0" arrivalPos="489.60" arrivalSpeed="55.02" duration="33.00" routeLength="994.90" waitingTime="0.00" waitingCount="0" stopTime="0.00" timeLoss="14.79" rerouteNo="0" devices="tripinfo_f_1_3.6" vType="DEFAULT_VEHTYPE" speedFactor="1.02" vaporized=""/>
    <tripinfo id="f_1_1.1" depart="175.00" departLane="4i_0" departPos="5.10" departSpeed="0.00" departDelay="0.00" arrival="208.00" arrivalLane="3o_0" arrivalPos="489.60" arrivalSpeed="54.59" duration="33.00" routeLength="994.90" waitingTime="0.00" waitingCount="0" stopTime="0.00" timeLoss="14.47" rerouteNo="0" devices="tripinfo_f_1_1.1" vType="DEFAULT_VEHTYPE" speedFactor="0.96" vaporized=""/>
    <tripinfo id="f_1_3.7" depart="176.00" departLane="3i_0" departPos="5.10" departSpeed="0.00" departDelay="0.00" arrival="208.00" arrivalLane="4o_0" arrivalPos="489.60" arrivalSpeed="55.14" duration="32.00" routeLength="994.90" waitingTime="0.00" waitingCount="0" stopTime="0.00" timeLoss="13.11" rerouteNo="0" devices="tripinfo_f_1_3.7" vType="DEFAULT_VEHTYPE" speedFactor="0.98" vaporized=""/>
    <tripinfo id="f_1_3.8" depart="179.00" departLane="3i_0" departPos="5.10" departSpeed="0.00" departDelay="1.00" arrival="210.00" arrivalLane="4o_0" arrivalPos="489.60" arrivalSpeed="55.05" duration="31.00" routeLength="994.90" waitingTime="0.00" waitingCount="0" stopTime="0.00" timeLoss="12.97" rerouteNo="0" devices="tripinfo_f_1_3.8" vType="DEFAULT_VEHTYPE" speedFactor="1.03" vaporized=""/>
    <tripinfo id="f_1_1.2" depart="178.00" departLane="4i_0" departPos="5.10" departSpeed="0.00" departDelay="1.00" arrival="211.00" arrivalLane="3o_0" arrivalPos="489.60" arrivalSpeed="55.12" duration="33.00" routeLength="994.90" waitingTime="0.00" waitingCount="0" stopTime="0.00" timeLoss="14.22" rerouteNo="0" devices="tripinfo_f_1_1.2" vType="DEFAULT_VEHTYPE" speedFactor="1.03" vaporized=""/>
    <tripinfo id="f_1_1.3" depart="181.00" departLane="4i_0" departPos="5.10" departSpeed="0.00" departDelay="3.00" arrival="213.00" arrivalLane="3o_0" arrivalPos="489.60" arrivalSpeed="54.80" duration="32.00" routeLength="994.90" waitingTime="0.00" waitingCount="0" stopTime="0.00" timeLoss="13.66" rerouteNo="0" devices="tripinfo_f_1_1.3" vType="DEFAULT_VEHTYPE" speedFactor="1.01" vaporized=""/>
    <tripinfo id="f_1_3.9" depart="184.00" departLane="3i_0" departPos="5.10" departSpeed="0.00" departDelay="0.00" arrival="216.00" arrivalLane="4o_0" arrivalPos="489.60" arrivalSpeed="54.64" duration="32.00" routeLength="994.90" waitingTime="0.00" waitingCount="0" stopTime="0.00" timeLoss="13.24" rerouteNo="0" devices="tripinfo_f_1_3.9" vType="DEFAULT_VEHTYPE" speedFactor="1.15" vaporized=""/>