<?xml version="1.0" encoding="UTF-8"?>

<!-- generated on 2024-08-23 17:22:07 by Eclipse SUMO sumo Version 1.17.0
<configuration xmlns:xsi="http://www.w3.org/2001/XMLSchema-instance" xsi:noNamespaceSchemaLocation="http://sumo.dlr.de/xsd/sumoConfiguration.xsd">

    <input>
        <net-file value="project_static.net.xml"/>
        <route-files value="project_1.rou.xml"/>
    </input>

    <output>
        <summary-output value="control_summaries\summary_project_static_1.xml"/>
        <tripinfo-output value="control_summaries\tripinfos_project_static_1.xml"/>
    </output>

    <processing>
        <time-to-teleport value="-1"/>
    </processing>

    <traci_server>
        <remote-port value="65270"/>
    </traci_server>

</configuration>
-->

<tripinfos xmlns:xsi="http://www.w3.org/2001/XMLSchema-instance" xsi:noNamespaceSchemaLocation="http://sumo.dlr.de/xsd/tripinfo_file.xsd">
    <tripinfo id="f_0_0.1" depart="5.00" departLane="1i_0" departPos="5.10" departSpeed="0.00" departDelay="0.00" arrival="67.00" arrivalLane="2o_1" arrivalPos="489.60" arrivalSpeed="43.50" duration="62.00" routeLength="994.90" waitingTime="13.00" waitingCount="1" stopTime="0.00" timeLoss="43.66" rerouteNo="0" devices="tripinfo_f_0_0.1" vType="DEFAULT_VEHTYPE" speedFactor="0.94" vaporized=""/>
    <tripinfo id="f_0_0.0" depart="2.00" departLane="1i_0" departPos="5.10" departSpeed="0.00" departDelay="0.00" arrival="68.00" arrivalLane="2o_0" arrivalPos="489.60" arrivalSpeed="45.31" duration="66.00" routeLength="994.90" waitingTime="15.00" waitingCount="1" stopTime="0.00" timeLoss="47.36" rerouteNo="0" devices="tripinfo_f_0_0.0" vType="DEFAULT_VEHTYPE" speedFactor="1.06" vaporized=""/>
    <tripinfo id="f_0_0.2" depart="10.00" departLane="1i_0" departPos="5.10" departSpeed="0.00" departDelay="0.00" arrival="68.00" arrivalLane="2o_1" arrivalPos="489.60" arrivalSpeed="42.89" duration="58.00" routeLength="994.90" waitingTime="9.00" waitingCount="1" stopTime="0.00" timeLoss="40.00" rerouteNo="0" devices="tripinfo_f_0_0.2" vType="DEFAULT_VEHTYPE" speedFactor="1.01" vaporized=""/>
    <tripinfo id="f_0_0.3" depart="16.00" departLane="1i_0" departPos="5.10" departSpeed="0.00" departDelay="0.00" arrival="69.00" arrivalLane="2o_0" arrivalPos="489.60" arrivalSpeed="43.59" duration="53.00" routeLength="994.90" waitingTime="0.00" waitingCount="0" stopTime="0.00" timeLoss="34.75" rerouteNo="0" devices="tripinfo_f_0_0.3" vType="DEFAULT_VEHTYPE" speedFactor="1.08" vaporized=""/>
    <tripinfo id="f_0_0.4" depart="20.00" departLane="1i_0" departPos="5.10" departSpeed="0.00" departDelay="0.00" arrival="70.00" arrivalLane="2o_1" arrivalPos="489.60" arrivalSpeed="44.75" duration="50.00" routeLength="994.90" waitingTime="0.00" waitingCount="0" stopTime="0.00" timeLoss="31.84" rerouteNo="0" devices="tripinfo_f_0_0.4" vType="DEFAULT_VEHTYPE" speedFactor="1.03" vaporized=""/>
    <tripinfo id="f_0_2.0" depart="40.00" departLane="2i_0" departPos="5.10" departSpeed="0.00" departDelay="0.00" arrival="71.00" arrivalLane="1o_0" arrivalPos="489.60" arrivalSpeed="55.28" duration="31.00" routeLength="994.90" waitingTime="0.00" waitingCount="0" stopTime="0.00" timeLoss="12.73" rerouteNo="0" devices="tripinfo_f_0_2.0" vType="DEFAULT_VEHTYPE" speedFactor="0.99" vaporized=""/>
    <tripinfo id="f_0_0.5" depart="25.00" departLane="1i_0" departPos="5.10" departSpeed="0.00" departDelay="0.00" arrival="72.00" arrivalLane="2o_1" arrivalPos="489.60" arrivalSpeed="46.21" duration="47.00" routeLength="994.90" waitingTime="0.00" waitingCount="0" stopTime="0.00" timeLoss="26.18" rerouteNo="0" devices="tripinfo_f_0_0.5" vType="DEFAULT_VEHTYPE" speedFactor="0.83" vaporized=""/>
    <tripinfo id="f_0_0.6" depart="29.00" departLane="1i_0" departPos="5.10" departSpeed="0.00" departDelay="0.00" arrival="73.00" arrivalLane="2o_0" arrivalPos="489.60" arrivalSpeed="45.94" duration="44.00" routeLength="994.90" waitingTime="0.00" waitingCount="0" stopTime="0.00" timeLoss="25.46" rerouteNo="0" devices="tripinfo_f_0_0.6" vType="DEFAULT_VEHTYPE" speedFactor="0.94" vaporized=""/>
    <tripinfo id="f_0_0.7" depart="32.00" departLane="1i_0" departPos="5.10" departSpeed="0.00" departDelay="0.00" arrival="73.00" arrivalLane="2o_1" arrivalPos="489.60" arrivalSpeed="46.17" duration="41.00" routeLength="994.90" waitingTime="0.00" waitingCount="0" stopTime="0.00" timeLoss="22.60" rerouteNo="0" devices="tripinfo_f_0_0.7" vType="DEFAULT_VEHTYPE" speedFactor="1.09" vaporized=""/>
    <tripinfo id="f_0_0.8" depart="35.00" departLane="1i_0" departPos="5.10" departSpeed="0.00" departDelay="1.00" arrival="74.00" arrivalLane="2o_0" arrivalPos="489.60" arrivalSpeed="46.10" duration="39.00" routeLength="994.90" waitingTime="0.00" waitingCount="0" stopTime="0.00" timeLoss="20.82" rerouteNo="0" devices="tripinfo_f_0_0.8" vType="DEFAULT_VEHTYPE" speedFactor="1.03" vaporized=""/>
    <tripinfo id="f_0_0.9" depart="39.00" departLane="1i_0" departPos="5.10" departSpeed="0.00" departDelay="0.00" arrival="74.00" arrivalLane="2o_1" arrivalPos="489.60" arrivalSpeed="47.98" duration="35.00" routeLength="994.90" waitingTime="0.00" waitingCount="0" stopTime="0.00" timeLoss="17.09" rerouteNo="0" devices="tripinfo_f_0_0.9" vType="DEFAULT_VEHTYPE" speedFactor="1.05" vaporized=""/>
    <tripinfo id="f_0_0.10" depart="42.00" departLane="1i_0" departPos="5.10" departSpeed="0.00" departDelay="2.00" arrival="76.00" arrivalLane="2o_0" arrivalPos="489.60" arrivalSpeed="49.87" duration="34.00" routeLength="994.90" waitingTime="0.00" waitingCount="0" stopTime="0.00" timeLoss="15.55" rerouteNo="0" devices="tripinfo_f_0_0.10" vType="DEFAULT_VEHTYPE" speedFactor="1.12" vaporized=""/>
    <tripinfo id="f_0_2.1" depart="43.00" departLane="2i_0" departPos="5.10" departSpeed="0.00" departDelay="1.00" arrival="77.00" arrivalLane="1o_0" arrivalPos="489.60" arrivalSpeed="54.36" duration="34.00" routeLength="994.90" waitingTime="0.00" waitingCount="0" stopTime="0.00" timeLoss="15.24" rerouteNo="0" devices="tripinfo_f_0_2.1" vType="DEFAULT_VEHTYPE" speedFactor="0.94" vaporized=""/>
    <tripinfo id="f_0_0.11" depart="45.00" departLane="1i_0" departPos="5.10" departSpeed="0.00" departDelay="4.00" arrival="78.00" arrivalLane="2o_0" arrivalPos="489.60" arrivalSpeed="52.81" duration="33.00" routeLength="994.90" waitingTime="0.00" waitingCount="0" stopTime="0.00" timeLoss="14.34" rerouteNo="0" devices="tripinfo_f_0_0.11" vType="DEFAULT_VEHTYPE" speedFactor="0.93" vaporized=""/>
    <tripinfo id="f_0_2.2" depart="46.00" departLane="2i_0" departPos="5.10" departSpeed="0.00" departDelay="1.00" arrival="78.00" arrivalLane="1o_0" arrivalPos="489.60" arrivalSpeed="54.70" duration="32.00" routeLength="994.90" waitingTime="0.00" waitingCount="0" stopTime="0.00" timeLoss="13.54" rerouteNo="0" devices="tripinfo_f_0_2.2" vType="DEFAULT_VEHTYPE" speedFactor="1.01" vaporized=""/>
    <tripinfo id="f_0_0.12" depart="48.00" departLane="1i_0" departPos="5.10" departSpeed="0.00" departDelay="4.00" arrival="81.00" arrivalLane="2o_0" arrivalPos="489.60" arrivalSpeed="54.46" duration="33.00" routeLength="994.90" waitingTime="0.00" waitingCount="0" stopTime="0.00" timeLoss="14.44" rerouteNo="0" devices="tripinfo_f_0_0.12" vType="DEFAULT_VEHTYPE" speedFactor="0.94" vaporized=""/>
    <tripinfo id="f_0_2.3" depart="50.00" departLane="2i_0" departPos="5.10" departSpeed="0.00" departDelay="0.00" arrival="82.00" arrivalLane="1o_0" arrivalPos="489.60" arrivalSpeed="55.10" duration="32.00" routeLength="994.90" waitingTime="0.00" waitingCount="0" stopTime="0.00" timeLoss="14.04" rerouteNo="0" devices="tripinfo_f_0_2.3" vType="DEFAULT_VEHTYPE" speedFactor="0.97" vaporized=""/>
    <tripinfo id="f_0_0.13" depart="51.00" departLane="1i_0" departPos="5.10" departSpeed="0.00" departDelay="6.00" arrival="85.00" arrivalLane="2o_0" arrivalPos="489.60" arrivalSpeed="54.96" duration="34.00" routeLength="994.90" waitingTime="0.00" waitingCount="0" stopTime="0.00" timeLoss="15.21" rerouteNo="0" devices="tripinfo_f_0_0.13" vType="DEFAULT_VEHTYPE" speedFactor="1.16" vaporized=""/>
    <tripinfo id="f_0_0.14" depart="59.00" departLane="1i_0" departPos="5.10" departSpeed="0.00" departDelay="0.00" arrival="91.00" arrivalLane="2o_0" arrivalPos="489.60" arrivalSpeed="54.44" duration="32.00" routeLength="994.90" waitingTime="0.00" waitingCount="0" stopTime="0.00" timeLoss="12.98" rerouteNo="0" devices="tripinfo_f_0_0.14" vType="DEFAULT_VEHTYPE" speedFactor="0.92" vaporized=""/>
    <tripinfo id="f_0_0.15" depart="62.00" departLane="1i_0" departPos="5.10" departSpeed="0.00" departDelay="0.00" arrival="94.00" arrivalLane="2o_0" arrivalPos="489.60" arrivalSpeed="54.74" duration="32.00" routeLength="994.90" waitingTime="0.00" waitingCount="0" stopTime="0.00" timeLoss="13.43" rerouteNo="0" devices="tripinfo_f_0_0.15" vType="DEFAULT_VEHTYPE" speedFactor="1.13" vaporized=""/>
    <tripinfo id="f_0_2.4" depart="65.00" departLane="2i_0" departPos="5.10" departSpeed="0.00" departDelay="0.00" arrival="98.00" arrivalLane="1o_0" arrivalPos="489.60" arrivalSpeed="54.84" duration="33.00" routeLength="994.90" waitingTime="0.00" waitingCount="0" stopTime="0.00" timeLoss="14.13" rerouteNo="0" devices="tripinfo_f_0_2.4" vType="DEFAULT_VEHTYPE" speedFactor="0.93" vaporized=""/>
    <tripinfo id="f_0_1.1" depart="29.00" departLane="4i_0" departPos="5.10" departSpeed="0.00" departDelay="2.00" arrival="112.00" arrivalLane="3o_0" arrivalPos="489.60" arrivalSpeed="44.65" duration="83.00" routeLength="994.90" waitingTime="34.00" waitingCount="1" stopTime="0.00" timeLoss="63.89" rerouteNo="0" devices="tripinfo_f_0_1.1" vType="DEFAULT_VEHTYPE" speedFactor="0.89" vaporized=""/>
    <tripinfo id="f_0_3.0" depart="80.00" departLane="3i_0" departPos="5.10" departSpeed="0.00" departDelay="0.00" arrival="112.00" arrivalLane="4o_0" arrivalPos="489.60" arrivalSpeed="54.42" duration="32.00" routeLength="994.90" waitingTime="0.00" waitingCount="0" stopTime="0.00" timeLoss="13.29" rerouteNo="0" devices="tripinfo_f_0_3.0" vType="DEFAULT_VEHTYPE" speedFactor="1.10" vaporized=""/>
    <tripinfo id="f_0_1.0" depart="26.00" departLane="4i_0" departPos="5.10" departSpeed="0.00" departDelay="0.00" arrival="113.00" arrivalLane="3o_0" arrivalPos="489.60" arrivalSpeed="41.31" duration="87.00" routeLength="994.90" waitingTime="37.00" waitingCount="1" stopTime="0.00" timeLoss="68.88" rerouteNo="0" devices="tripinfo_f_0_1.0" vType="DEFAULT_VEHTYPE" speedFactor="1.05" vaporized=""/>
    <tripinfo id="f_0_1.2" depart="32.00" departLane="4i_0" departPos="5.10" departSpeed="0.00" departDelay="3.00" arrival="113.00" arrivalLane="3o_1" arrivalPos="489.60" arrivalSpeed="45.08" duration="81.00" routeLength="994.90" waitingTime="30.00" waitingCount="1" stopTime="0.00" timeLoss="61.53" rerouteNo="0" devices="tripinfo_f_0_1.2" vType="DEFAULT_VEHTYPE" speedFactor="0.86" vaporized=""/>
    <tripinfo id="f_0_3.1" depart="83.00" departLane="3i_0" departPos="5.10" departSpeed="0.00" departDelay="2.00" arrival="114.00" arrivalLane="4o_0" arrivalPos="489.60" arrivalSpeed="54.51" duration="31.00" routeLength="994.90" waitingTime="0.00" waitingCount="0" stopTime="0.00" timeLoss="12.67" rerouteNo="0" devices="tripinfo_f_0_3.1" vType="DEFAULT_VEHTYPE" speedFactor="1.03" vaporized=""/>
    <tripinfo id="f_0_1.3" depart="42.00" departLane="4i_0" departPos="5.10" departSpeed="0.00" departDelay="0.00" arrival="115.00" arrivalLane="3o_0" arrivalPos="489.60" arrivalSpeed="42.86" duration="73.00" routeLength="994.90" waitingTime="18.00" waitingCount="1" stopTime="0.00" timeLoss="53.35" rerouteNo="0" devices="tripinfo_f_0_1.3" vType="DEFAULT_VEHTYPE" speedFactor="0.88" vaporized=""/>
    <tripinfo id="f_0_1.4" depart="45.00" departLane="4i_0" departPos="5.10" departSpeed="0.00" departDelay="0.00" arrival="115.00" arrivalLane="3o_1" arrivalPos="489.60" arrivalSpeed="46.59" duration="70.00" routeLength="994.90" waitingTime="19.00" waitingCount="1" stopTime="0.00" timeLoss="51.43" rerouteNo="0" devices="tripinfo_f_0_1.4" vType="DEFAULT_VEHTYPE" speedFactor="1.02" vaporized=""/>
    <tripinfo id="f_0_1.5" depart="51.00" departLane="4i_0" departPos="5.10" departSpeed="0.00" departDelay="0.00" arrival="116.00" arrivalLane="3o_0" arrivalPos="489.60" arrivalSpeed="42.87" duration="65.00" routeLength="994.90" waitingTime="11.00" waitingCount="1" stopTime="0.00" timeLoss="45.88" rerouteNo="0" devices="tripinfo_f_0_1.5" vType="DEFAULT_VEHTYPE" speedFactor="0.89" vaporized=""/>
    <tripinfo id="f_0_1.6" depart="56.00" departLane="4i_0" departPos="5.10" departSpeed="0.00" departDelay="0.00" arrival="116.00" arrivalLane="3o_1" arrivalPos="489.60" arrivalSpeed="45.88" duration="60.00" routeLength="994.90" waitingTime="10.00" waitingCount="1" stopTime="0.00" timeLoss="39.79" rerouteNo="0" devices="tripinfo_f_0_1.6" vType="DEFAULT_VEHTYPE" speedFactor="0.83" vaporized=""/>
    <tripinfo id="f_0_1.7" depart="59.00" departLane="4i_0" departPos="5.10" departSpeed="0.00" departDelay="1.00" arrival="117.00" arrivalLane="3o_0" arrivalPos="489.60" arrivalSpeed="42.07" duration="58.00" routeLength="994.90" waitingTime="0.00" waitingCount="0" stopTime="0.00" timeLoss="38.80" rerouteNo="0" devices="tripinfo_f_0_1.7" vType="DEFAULT_VEHTYPE" speedFactor="0.87" vaporized=""/>
    <tripinfo id="f_0_1.8" depart="62.00" departLane="4i_0" departPos="5.10" departSpeed="0.00" departDelay="2.00" arrival="118.00" arrivalLane="3o_1" arrivalPos="489.60" arrivalSpeed="46.58" duration="56.00" routeLength="994.90" waitingTime="5.00" waitingCount="1" stopTime="0.00" timeLoss="37.45" rerouteNo="0" devices="tripinfo_f_0_1.8" vType="DEFAULT_VEHTYPE" speedFactor="0.95" vaporized=""/>
    <tripinfo id="f_0_3.2" depart="86.00" departLane="3i_0" departPos="5.10" departSpeed="0.00" departDelay="1.00" arrival="118.00" arrivalLane="4o_0" arrivalPos="489.60" arrivalSpeed="54.76" duration="32.00" routeLength="994.90" waitingTime="0.00" waitingCount="0" stopTime="0.00" timeLoss="13.52" rerouteNo="0" devices="tripinfo_f_0_3.2" vType="DEFAULT_VEHTYPE" speedFactor="1.04" vaporized=""/>
    <tripinfo id="f_0_1.9" depart="69.00" departLane="4i_0" departPos="5.10" departSpeed="0.00" departDelay="0.00" arrival="119.00" arrivalLane="3o_1" arrivalPos="489.60" arrivalSpeed="45.13" duration="50.00" routeLength="994.90" waitingTime="0.00" waitingCount="0" stopTime="0.00" timeLoss="31.83" rerouteNo="0" devices="tripinfo_f_0_1.9" vType="DEFAULT_VEHTYPE" speedFactor="1.15" vaporized=""/>
    <tripinfo id="f_0_1.10" depart="73.00" departLane="4i_0" departPos="5.10" departSpeed="0.00" departDelay="0.00" arrival="121.00" arrivalLane="3o_1" arrivalPos="489.60" arrivalSpeed="46.99" duration="48.00" routeLength="994.90" waitingTime="0.00" waitingCount="0" stopTime="0.00" timeLoss="29.50" rerouteNo="0" devices="tripinfo_f_0_1.10" vType="DEFAULT_VEHTYPE" speedFactor="0.99" vaporized=""/>
    <tripinfo id="f_0_3.3" depart="89.00" departLane="3i_0" departPos="5.10" departSpeed="0.00" departDelay="3.00" arrival="121.00" arrivalLane="4o_0" arrivalPos="489.60" arrivalSpeed="54.89" duration="32.00" routeLength="994.90" waitingTime="0.00" waitingCount="0" stopTime="0.00" timeLoss="13.37" rerouteNo="0" devices="tripinfo_f_0_3.3" vType="DEFAULT_VEHTYPE" speedFactor="1.04" vaporized=""/>
    <tripinfo id="f_0_1.11" depart="77.00" departLane="4i_0" departPos="5.10" departSpeed="0.00" departDelay="0.00" arrival="122.00" arrivalLane="3o_0" arrivalPos="489.60" arrivalSpeed="46.88" duration="45.00" routeLength="994.90" waitingTime="0.00" waitingCount="0" stopTime="0.00" timeLoss="26.57" rerouteNo="0" devices="tripinfo_f_0_1.11" vType="DEFAULT_VEHTYPE" speedFactor="1.02" vaporized=""/>
    <tripinfo id="f_0_1.12" depart="80.00" departLane="4i_0" departPos="5.10" departSpeed="0.00" departDelay="0.00" arrival="122.00" arrivalLane="3o_1" arrivalPos="489.60" arrivalSpeed="46.15" duration="42.00" routeLength="994.90" waitingTime="0.00" waitingCount="0" stopTime="0.00" timeLoss="23.82" rerouteNo="0" devices="tripinfo_f_0_1.12" vType="DEFAULT_VEHTYPE" speedFactor="1.18" vaporized=""/>
    <tripinfo id="f_0_1.13" depart="83.00" departLane="4i_0" departPos="5.10" departSpeed="0.00" departDelay="0.00" arrival="123.00" arrivalLane="3o_1" arrivalPos="489.60" arrivalSpeed="46.83" duration="40.00" routeLength="994.90" waitingTime="0.00" waitingCount="0" stopTime="0.00" timeLoss="22.09" rerouteNo="0" devices="tripinfo_f_0_1.13" vType="DEFAULT_VEHTYPE" speedFactor="0.96" vaporized=""/>
    <tripinfo id="f_0_3.4" depart="92.00" departLane="3i_0" departPos="5.10" departSpeed="0.00" departDelay="5.00" arrival="124.00" arrivalLane="4o_0" arrivalPos="489.60" arrivalSpeed="55.30" duration="32.00" routeLength="994.90" waitingTime="0.00" waitingCount="0" stopTime="0.00" timeLoss="13.42" rerouteNo="0" devices="tripinfo_f_0_3.4" vType="DEFAULT_VEHTYPE" speedFactor="1.00" vaporized=""/>
    <tripinfo id="f_0_1.14" depart="86.00" departLane="4i_0" departPos="5.10" departSpeed="0.00" departDelay="1.00" arrival="125.00" arrivalLane="3o_0" arrivalPos="489.60" arrivalSpeed="48.60" duration="39.00" routeLength="994.90" waitingTime="0.00" waitingCount="0" stopTime="0.00" timeLoss="20.44" rerouteNo="0" devices="tripinfo_f_0_1.14" vType="DEFAULT_VEHTYPE" speedFactor="1.09" vaporized=""/>
    <tripinfo id="f_0_1.15" depart="89.00" departLane="4i_0" departPos="5.10" departSpeed="0.00" departDelay="2.00" arrival="125.00" arrivalLane="3o_1" arrivalPos="489.60" arrivalSpeed="48.46" duration="36.00" routeLength="994.90" waitingTime="0.00" waitingCount="0" stopTime="0.00" timeLoss="17.68" rerouteNo="0" devices="tripinfo_f_0_1.15" vType="DEFAULT_VEHTYPE" speedFactor="1.09" vaporized=""/>
    <tripinfo id="f_0_3.5" depart="95.00" departLane="3i_0" departPos="5.10" departSpeed="0.00" departDelay="6.00" arrival="127.00" arrivalLane="4o_0" arrivalPos="489.60" arrivalSpeed="52.50" duration="32.00" routeLength="994.90" waitingTime="0.00" waitingCount="0" stopTime="0.00" timeLoss="12.72" rerouteNo="0" devices="tripinfo_f_0_3.5" vType="DEFAULT_VEHTYPE" speedFactor="0.88" vaporized=""/>
    <tripinfo id="f_0_1.16" depart="92.00" departLane="4i_0" departPos="5.10" departSpeed="0.00" departDelay="2.00" arrival="127.00" arrivalLane="3o_1" arrivalPos="489.60" arrivalSpeed="50.94" duration="35.00" routeLength="994.90" waitingTime="0.00" waitingCount="0" stopTime="0.00" timeLoss="14.74" rerouteNo="0" devices="tripinfo_f_0_1.16" vType="DEFAULT_VEHTYPE" speedFactor="0.85" vaporized=""/>
    <tripinfo id="f_0_1.17" depart="96.00" departLane="4i_0" departPos="5.10" departSpeed="0.00" departDelay="0.00" arrival="128.00" arrivalLane="3o_1" arrivalPos="489.60" arrivalSpeed="53.07" duration="32.00" routeLength="994.90" waitingTime="0.00" waitingCount="0" stopTime="0.00" timeLoss="14.04" rerouteNo="0" devices="tripinfo_f_0_1.17" vType="DEFAULT_VEHTYPE" speedFactor="1.00" vaporized=""/>
    <tripinfo id="f_0_3.6" depart="98.00" departLane="3i_0" departPos="5.10" departSpeed="0.00" departDelay="3.00" arrival="130.00" arrivalLane="4o_0" arrivalPos="489.60" arrivalSpeed="55.43" duration="32.00" routeLength="994.90" waitingTime="0.00" waitingCount="0" stopTime="0.00" timeLoss="13.77" rerouteNo="0" devices="tripinfo_f_0_3.6" vType="DEFAULT_VEHTYPE" speedFactor="1.02" vaporized=""/>
    <tripinfo id="f_0_2.6" depart="79.00" departLane="2i_0" departPos="5.10" departSpeed="0.00" departDelay="0.00" arrival="156.00" arrivalLane="1o_1" arrivalPos="489.60" arrivalSpeed="44.71" duration="77.00" routeLength="994.90" waitingTime="28.00" waitingCount="1" stopTime="0.00" timeLoss="59.03" rerouteNo="0" devices="tripinfo_f_0_2.6" vType="DEFAULT_VEHTYPE" speedFactor="0.97" vaporized=""/>
    <tripinfo id="f_0_2.5" depart="68.00" departLane="2i_0" departPos="5.10" departSpeed="0.00" departDelay="1.00" arrival="157.00" arrivalLane="1o_0" arrivalPos="489.60" arrivalSpeed="44.61" duration="89.00" routeLength="994.90" waitingTime="39.00" waitingCount="1" stopTime="0.00" timeLoss="70.87" rerouteNo="0" devices="tripinfo_f_0_2.5" vType="DEFAULT_VEHTYPE" speedFactor="1.18" vaporized=""/>
    <tripinfo id="f_0_0.17" depart="74.00" departLane="1i_0" departPos="5.10" departSpeed="0.00" departDelay="2.00" arrival="157.00" arrivalLane="2o_1" arrivalPos="489.60" arrivalSpeed="44.33" duration="83.00" routeLength="994.90" waitingTime="32.00" waitingCount="1" stopTime="0.00" timeLoss="64.58" rerouteNo="0" devices="tripinfo_f_0_0.17" vType="DEFAULT_VEHTYPE" speedFactor="1.17" vaporized=""/>
    <tripinfo id="f_0_0.16" depart="71.00" departLane="1i_0" departPos="5.10" departSpeed="0.00" departDelay="0.00" arrival="158.00" arrivalLane="2o_0" arrivalPos="489.60" arrivalSpeed="45.62" duration="87.00" routeLength="994.90" waitingTime="34.00" waitingCount="1" stopTime="0.00" timeLoss="68.32" rerouteNo="0" devices="tripinfo_f_0_0.16" vType="DEFAULT_VEHTYPE" speedFactor="1.01" vaporized=""/>
    <tripinfo id="f_0_0.18" depart="81.00" departLane="1i_0" departPos="5.10" departSpeed="0.00" departDelay="0.00" arrival="158.00" arrivalLane="2o_1" arrivalPos="489.60" arrivalSpeed="44.02" duration="77.00" routeLength="994.90" waitingTime="27.00" waitingCount="1" stopTime="0.00" timeLoss="58.32" rerouteNo="0" devices="tripinfo_f_0_0.18" vType="DEFAULT_VEHTYPE" speedFactor="0.90" vaporized=""/>
    <tripinfo id="f_0_2.7" depart="92.00" departLane="2i_0" departPos="5.10" departSpeed="0.00" departDelay="0.00" arrival="158.00" arrivalLane="1o_1" arrivalPos="489.60" arrivalSpeed="42.86" duration="66.00" routeLength="994.90" waitingTime="16.00" waitingCount="1" stopTime="0.00" timeLoss="46.49" rerouteNo="0" devices="tripinfo_f_0_2.7" vType="DEFAULT_VEHTYPE" speedFactor="0.85" vaporized=""/>
    <tripinfo id="f_0_0.19" depart="89.00" departLane="1i_0" departPos="5.10" departSpeed="0.00" departDelay="0.00" arrival="159.00" arrivalLane="2o_0" arrivalPos="489.60" arrivalSpeed="43.39" duration="70.00" routeLength="994.90" waitingTime="14.00" waitingCount="2" stopTime="0.00" timeLoss="51.28" rerouteNo="0" devices="tripinfo_f_0_0.19" vType="DEFAULT_VEHTYPE" speedFactor="0.90" vaporized=""/>
    <tripinfo id="f_0_2.8" depart="97.00" departLane="2i_0" departPos="5.10" departSpeed="0.00" departDelay="0.00" arrival="159.00" arrivalLane="1o_0" arrivalPos="489.60" arrivalSpeed="42.24" duration="62.00" routeLength="994.90" waitingTime="6.00" waitingCount="2" stopTime="0.00" timeLoss="44.00" rerouteNo="0" devices="tripinfo_f_0_2.8" vType="DEFAULT_VEHTYPE" speedFactor="1.00" vaporized=""/>
    <tripinfo id="f_0_0.20" depart="95.00" departLane="1i_0" departPos="5.10" departSpeed="0.00" departDelay="0.00" arrival="160.00" arrivalLane="2o_1" arrivalPos="489.60" arrivalSpeed="45.20" duration="65.00" routeLength="994.90" waitingTime="13.00" waitingCount="1" stopTime="0.00" timeLoss="46.37" rerouteNo="0" devices="tripinfo_f_0_0.20" vType="DEFAULT_VEHTYPE" speedFactor="1.17" vaporized=""/>
    <tripinfo id="f_0_0.21" depart="98.00" departLane="1i_0" departPos="5.10" departSpeed="0.00" departDelay="2.00" arrival="160.00" arrivalLane="2o_0" arrivalPos="489.60" arrivalSpeed="42.83" duration="62.00" routeLength="994.90" waitingTime="11.00" waitingCount="1" stopTime="0.00" timeLoss="44.07" rerouteNo="0" devices="tripinfo_f_0_0.21" vType="DEFAULT_VEHTYPE" speedFactor="1.10" vaporized=""/>
    <tripinfo id="f_1_2.0" depart="150.00" departLane="2i_0" departPos="5.10" departSpeed="0.00" departDelay="0.00" arrival="182.00" arrivalLane="1o_0" arrivalPos="489.60" arrivalSpeed="53.46" duration="32.00" routeLength="994.90" waitingTime="0.00" waitingCount="0" stopTime="0.00" timeLoss="13.52" rerouteNo="0" devices="tripinfo_f_1_2.0" vType="DEFAULT_VEHTYPE" speedFactor="0.90" vaporized=""/>
    <tripinfo id="f_1_2.1" depart="153.00" departLane="2i_0" departPos="5.10" departSpeed="0.00" departDelay="0.00" arrival="186.00" arrivalLane="1o_0" arrivalPos="489.60" arrivalSpeed="54.34" duration="33.00" routeLength="994.90" waitingTime="0.00" waitingCount="0" stopTime="0.00" timeLoss="14.36" rerouteNo="0" devices="tripinfo_f_1_2.1" vType="DEFAULT_VEHTYPE" speedFactor="0.97" vaporized=""/>
    <tripinfo id="f_1_0.0" depart="155.00" departLane="1i_0" departPos="5.10" departSpeed="0.00" departDelay="0.00" arrival="186.00" arrivalLane="2o_0" arrivalPos="489.60" arrivalSpeed="54.30" duration="31.00" routeLength="994.90" waitingTime="0.00" waitingCount="0" stopTime="0.00" timeLoss="13.00" rerouteNo="0" devices="tripinfo_f_1_0.0" vType="DEFAULT_VEHTYPE" speedFactor="1.08" vaporized=""/>
    <tripinfo id="f_1_3.1" depart="153.00" departLane="3i_0" departPos="5.10" departSpeed="0.00" departDelay="1.00" arrival="200.00" arrivalLane="4o_1" arrivalPos="489.60" arrivalSpeed="44.28" duration="47.00" routeLength="994.90" waitingTime="0.00" waitingCount="0" stopTime="0.00" timeLoss="28.70" rerouteNo="0" devices="tripinfo_f_1_3.1" vType="DEFAULT_VEHTYPE" speedFactor="1.02" vaporized=""/>
    <tripinfo id="f_1_3.2" depart="160.00" departLane="3i_0" departPos="5.10" departSpeed="0.00" departDelay="0.00" arrival="201.00" arrivalLane="4o_1" arrivalPos="489.60" arrivalSpeed="42.76" duration="41.00" routeLength="994.90" waitingTime="0.00" waitingCount="0" stopTime="0.00" timeLoss="23.05" rerouteNo="0" devices="tripinfo_f_1_3.2" vType="DEFAULT_VEHTYPE" speedFactor="1.12" vaporized=""/>
    <tripinfo id="f_1_3.0" depart="150.00" departLane="3i_0" departPos="5.10" departSpeed="0.00" departDelay="0.00" arrival="203.00" arrivalLane="4o_0" arrivalPos="489.60" arrivalSpeed="44.82" duration="53.00" routeLength="994.90" waitingTime="2.00" waitingCount="1" stopTime="0.00" timeLoss="34.53" rerouteNo="0" devices="tripinfo_f_1_3.0" vType="DEFAULT_VEHTYPE" speedFactor="1.14" vaporized=""/>
    <tripinfo id="f_1_3.4" depart="166.00" departLane="3i_0" departPos="5.10" departSpeed="0.00" departDelay="3.00" arrival="203.00" arrivalLane="4o_1" arrivalPos="489.60" arrivalSpeed="46.00" duration="37.00" routeLength="994.90" waitingTime="0.00" waitingCount="0" stopTime="0.00" timeLoss="17.67" rerouteNo="0" devices="tripinfo_f_1_3.4" vType="DEFAULT_VEHTYPE" speedFactor="0.88" vaporized=""/>
    <tripinfo id="f_1_3.3" depart="163.00" departLane="3i_0" departPos="5.10" departSpeed="0.00" departDelay="1.00" arrival="204.00" arrivalLane="4o_0" arrivalPos="489.60" arrivalSpeed="44.10" duration="41.00" routeLength="994.90" waitingTime="0.00" waitingCount="0" stopTime="0.00" timeLoss="22.78" rerouteNo="0" devices="tripinfo_f_1_3.3" vType="DEFAULT_VEHTYPE" speedFactor="0.99" vaporized=""/>
    <tripinfo id="f_1_1.0" depart="171.00" departLane="4i_0" departPos="5.10" departSpeed="0.00" departDelay="0.00" arrival="204.00" arrivalLane="3o_0" arrivalPos="489.60" arrivalSpeed="55.18" duration="33.00" routeLength="994.90" waitingTime="0.00" waitingCount="0" stopTime="0.00" timeLoss="14.37" rerouteNo="0" devices="tripinfo_f_1_1.0" vType="DEFAULT_VEHTYPE" speedFactor="1.06" vaporized=""/>
    <tripinfo id="f_1_3.5" depart="169.00" departLane="3i_0" departPos="5.10" departSpeed="0.00" departDelay="2.00" arrival="205.00" arrivalLane="4o_1" arrivalPos="489.60" arrivalSpeed="49.55" duration="36.00" routeLength="994.90" waitingTime="0.00" waitingCount="0" stopTime="0.00" timeLoss="17.23" rerouteNo="0" devices="tripinfo_f_1_3.5" vType="DEFAULT_VEHTYPE" speedFactor="1.04" vaporized=""/>
    <tripinfo id="f_1_3.6" depart="172.00" departLane="3i_0" departPos="5.10" departSpeed="0.00" departDelay="4.00" arrival="206.00" arrivalLane="4o_0" arrivalPos="489.60" arrivalSpeed="49.47" duration="34.00" routeLength="994.90" waitingTime="0.00" waitingCount="0" stopTime="0.00" timeLoss="15.61" rerouteNo="0" devices="tripinfo_f_1_3.6" vType="DEFAULT_VEHTYPE" speedFactor="1.02" vaporized=""/>
    <tripinfo id="f_1_1.1" depart="175.00" departLane="4i_0" departPos="5.10" departSpeed="0.00" departDelay="0.00" arrival="207.00" arrivalLane="3o_0" arrivalPos="489.60" arrivalSpeed="55.01" duration="32.00" routeLength="994.90" waitingTime="0.00" waitingCount="0" stopTime="0.00" timeLoss="13.33" rerouteNo="0" devices="tripinfo_f_1_1.1" vType="DEFAULT_VEHTYPE" speedFactor="0.96" vaporized=""/>
    <tripinfo id="f_1_3.7" depart="176.00" departLane="3i_0" departPos="5.10" departSpeed="0.00" departDelay="0.00" arrival="208.00" arrivalLane="4o_0" arrivalPos="489.60" arrivalSpeed="54.45" duration="32.00" routeLength="994.90" waitingTime="0.00" waitingCount="0" stopTime="0.00" timeLoss="13.91" rerouteNo="0" devices="tripinfo_f_1_3.7" vType="DEFAULT_VEHTYPE" speedFactor="0.98" vaporized=""/>
    <tripinfo id="f_1_1.2" depart="177.00" departLane="4i_0" departPos="5.10" departSpeed="0.00" departDelay="0.00" arrival="210.00" arrivalLane="3o_0" arrivalPos="489.60" arrivalSpeed="55.03" duration="33.00" routeLength="994.90" waitingTime="0.00" waitingCount="0" stopTime="0.00" timeLoss="14.44" rerouteNo="0" devices="tripinfo_f_1_1.2" vType="DEFAULT_VEHTYPE" speedFactor="1.03" vaporized=""/>
    <tripinfo id="f_1_3.8" depart="179.00" departLane="3i_0" departPos="5.10" departSpeed="0.00" departDelay="1.00" arrival="210.00" arrivalLane="4o_0" arrivalPos="489.60" arrivalSpeed="54.55" duration="31.00" routeLength="994.90" waitingTime="0.00" waitingCount="0" stopTime="0.00" timeLoss="12.98" rerouteNo="0" devices="tripinfo_f_1_3.8" vType="DEFAULT_VEHTYPE" speedFactor="1.03" vaporized=""/>
    <tripinfo id="f_1_1.3" depart="181.00" departLane="4i_0" departPos="5.10" departSpeed="0.00" departDelay="3.00" arrival="214.00" arrivalLane="3o_0" arrivalPos="489.60" arrivalSpeed="55.15" duration="33.00" routeLength="994.90" waitingTime="0.00" waitingCount="0" stopTime="0.00" timeLoss="14.76" rerouteNo="0" devices="tripinfo_f_1_1.3" vType="DEFAULT_VEHTYPE" speedFactor="1.01" vaporized=""/>
    <tripinfo id="f_1_3.9" depart="184.00" departLane="3i_0" departPos="5.10" departSpeed="0.00" departDelay="0.00" arrival="215.00" arrivalLane="4o_0" arrivalPos="489.60" arrivalSpeed="55.49" duration="31.00" routeLength="994.90" waitingTime="0.00" waitingCount="0" stopTime="0.00" timeLoss="12.91" rerouteNo="0" devices="tripinfo_f_1_3.9" vType="DEFAULT_VEHTYPE" speedFactor="1.15" vaporized=""/>