<?xml version="1.0" encoding="UTF-8"?>

<!-- generated on 2024-08-23 17:22:12 by Eclipse SUMO sumo Version 1.17.0
<configuration xmlns:xsi="http://www.w3.org/2001/XMLSchema-instance" xsi:noNamespaceSchemaLocation="http://sumo.dlr.de/xsd/sumoConfiguration.xsd">

    <input>
        <net-file value="project_static.net.xml"/>
        <route-files value="project_4.rou.xml"/>
    </input>

    <output>
        <summary-output value="control_summaries\summary_project_static_4.xml"/>
        <tripinfo-output value="control_summaries\tripinfos_project_static_4.xml"/>
    </output>

    <processing>
        <time-to-teleport value="-1"/>
    </processing>

    <traci_server>
        <remote-port value="65281"/>
    </traci_server>

</configuration>
-->

<tripinfos xmlns:xsi="http://www.w3.org/2001/XMLSchema-instance" xsi:noNamespaceSchemaLocation="http://sumo.dlr.de/xsd/tripinfo_file.xsd">
    <tripinfo id="f_0_0.0" depart="2.00" departLane="1i_0" departPos="5.10" departSpeed="0.00" departDelay="0.00" arrival="66.00" arrivalLane="2o_0" arrivalPos="489.60" arrivalSpeed="46.14" duration="64.00" routeLength="994.90" waitingTime="14.00" waitingCount="1" stopTime="0.00" timeLoss="45.73" rerouteNo="0" devices="tripinfo_f_0_0.0" vType="DEFAULT_VEHTYPE" speedFactor="1.06" vaporized=""/>
    <tripinfo id="f_0_0.1" depart="5.00" departLane="1i_0" departPos="5.10" departSpeed="0.00" departDelay="2.00" arrival="66.00" arrivalLane="2o_1" arrivalPos="489.60" arrivalSpeed="45.07" duration="61.00" routeLength="994.90" waitingTime="12.00" waitingCount="1" stopTime="0.00" timeLoss="42.96" rerouteNo="0" devices="tripinfo_f_0_0.1" vType="DEFAULT_VEHTYPE" speedFactor="0.94" vaporized=""/>
    <tripinfo id="f_0_0.2" depart="8.00" departLane="1i_0" departPos="5.10" departSpeed="0.00" departDelay="3.00" arrival="68.00" arrivalLane="2o_1" arrivalPos="489.60" arrivalSpeed="44.54" duration="60.00" routeLength="994.90" waitingTime="10.00" waitingCount="1" stopTime="0.00" timeLoss="41.62" rerouteNo="0" devices="tripinfo_f_0_0.2" vType="DEFAULT_VEHTYPE" speedFactor="1.01" vaporized=""/>
    <tripinfo id="f_0_0.3" depart="11.00" departLane="1i_0" departPos="5.10" departSpeed="0.00" departDelay="4.00" arrival="68.00" arrivalLane="2o_0" arrivalPos="489.60" arrivalSpeed="42.51" duration="57.00" routeLength="994.90" waitingTime="4.00" waitingCount="1" stopTime="0.00" timeLoss="39.01" rerouteNo="0" devices="tripinfo_f_0_0.3" vType="DEFAULT_VEHTYPE" speedFactor="1.08" vaporized=""/>
    <tripinfo id="f_0_0.4" depart="14.00" departLane="1i_0" departPos="5.10" departSpeed="0.00" departDelay="4.00" arrival="70.00" arrivalLane="2o_1" arrivalPos="489.60" arrivalSpeed="47.01" duration="56.00" routeLength="994.90" waitingTime="5.00" waitingCount="1" stopTime="0.00" timeLoss="37.60" rerouteNo="0" devices="tripinfo_f_0_0.4" vType="DEFAULT_VEHTYPE" speedFactor="1.03" vaporized=""/>
    <tripinfo id="f_0_0.5" depart="17.00" departLane="1i_0" departPos="5.10" departSpeed="0.00" departDelay="5.00" arrival="70.00" arrivalLane="2o_0" arrivalPos="489.60" arrivalSpeed="44.65" duration="53.00" routeLength="994.90" waitingTime="0.00" waitingCount="0" stopTime="0.00" timeLoss="32.40" rerouteNo="0" devices="tripinfo_f_0_0.5" vType="DEFAULT_VEHTYPE" speedFactor="0.83" vaporized=""/>
    <tripinfo id="f_0_0.6" depart="20.00" departLane="1i_0" departPos="5.10" departSpeed="0.00" departDelay="7.00" arrival="72.00" arrivalLane="2o_1" arrivalPos="489.60" arrivalSpeed="46.51" duration="52.00" routeLength="994.90" waitingTime="0.00" waitingCount="0" stopTime="0.00" timeLoss="33.52" rerouteNo="0" devices="tripinfo_f_0_0.6" vType="DEFAULT_VEHTYPE" speedFactor="1.05" vaporized=""/>
    <tripinfo id="f_0_2.0" depart="40.00" departLane="2i_0" departPos="5.10" departSpeed="0.00" departDelay="0.00" arrival="72.00" arrivalLane="1o_0" arrivalPos="489.60" arrivalSpeed="54.55" duration="32.00" routeLength="994.90" waitingTime="0.00" waitingCount="0" stopTime="0.00" timeLoss="13.42" rerouteNo="0" devices="tripinfo_f_0_2.0" vType="DEFAULT_VEHTYPE" speedFactor="1.15" vaporized=""/>
    <tripinfo id="f_0_0.9" depart="29.00" departLane="1i_0" departPos="5.10" departSpeed="0.00" departDelay="11.00" arrival="73.00" arrivalLane="2o_0" arrivalPos="489.60" arrivalSpeed="44.29" duration="44.00" routeLength="994.90" waitingTime="0.00" waitingCount="0" stopTime="0.00" timeLoss="24.61" rerouteNo="0" devices="tripinfo_f_0_0.9" vType="DEFAULT_VEHTYPE" speedFactor="0.86" vaporized=""/>
    <tripinfo id="f_0_0.7" depart="23.00" departLane="1i_0" departPos="5.10" departSpeed="0.00" departDelay="8.00" arrival="74.00" arrivalLane="2o_1" arrivalPos="489.60" arrivalSpeed="44.60" duration="51.00" routeLength="994.90" waitingTime="0.00" waitingCount="0" stopTime="0.00" timeLoss="32.01" rerouteNo="0" devices="tripinfo_f_0_0.7" vType="DEFAULT_VEHTYPE" speedFactor="0.89" vaporized=""/>
    <tripinfo id="f_0_0.8" depart="26.00" departLane="1i_0" departPos="5.10" departSpeed="0.00" departDelay="10.00" arrival="76.00" arrivalLane="2o_0" arrivalPos="489.60" arrivalSpeed="44.20" duration="50.00" routeLength="994.90" waitingTime="0.00" waitingCount="0" stopTime="0.00" timeLoss="31.59" rerouteNo="0" devices="tripinfo_f_0_0.8" vType="DEFAULT_VEHTYPE" speedFactor="0.94" vaporized=""/>
    <tripinfo id="f_0_0.10" depart="32.00" departLane="1i_0" departPos="5.10" departSpeed="0.00" departDelay="12.00" arrival="76.00" arrivalLane="2o_1" arrivalPos="489.60" arrivalSpeed="44.89" duration="44.00" routeLength="994.90" waitingTime="0.00" waitingCount="0" stopTime="0.00" timeLoss="25.46" rerouteNo="0" devices="tripinfo_f_0_0.10" vType="DEFAULT_VEHTYPE" speedFactor="1.09" vaporized=""/>
    <tripinfo id="f_0_2.1" depart="43.00" departLane="2i_0" departPos="5.10" departSpeed="0.00" departDelay="1.00" arrival="76.00" arrivalLane="1o_0" arrivalPos="489.60" arrivalSpeed="54.36" duration="33.00" routeLength="994.90" waitingTime="0.00" waitingCount="0" stopTime="0.00" timeLoss="14.31" rerouteNo="0" devices="tripinfo_f_0_2.1" vType="DEFAULT_VEHTYPE" speedFactor="1.02" vaporized=""/>
    <tripinfo id="f_0_0.11" depart="35.00" departLane="1i_0" departPos="5.10" departSpeed="0.00" departDelay="14.00" arrival="77.00" arrivalLane="2o_0" arrivalPos="489.60" arrivalSpeed="43.89" duration="42.00" routeLength="994.90" waitingTime="0.00" waitingCount="0" stopTime="0.00" timeLoss="23.83" rerouteNo="0" devices="tripinfo_f_0_0.11" vType="DEFAULT_VEHTYPE" speedFactor="1.03" vaporized=""/>
    <tripinfo id="f_0_0.12" depart="38.00" departLane="1i_0" departPos="5.10" departSpeed="0.00" departDelay="13.00" arrival="77.00" arrivalLane="2o_1" arrivalPos="489.60" arrivalSpeed="46.29" duration="39.00" routeLength="994.90" waitingTime="0.00" waitingCount="0" stopTime="0.00" timeLoss="20.70" rerouteNo="0" devices="tripinfo_f_0_0.12" vType="DEFAULT_VEHTYPE" speedFactor="0.99" vaporized=""/>
    <tripinfo id="f_0_2.2" depart="46.00" departLane="2i_0" departPos="5.10" departSpeed="0.00" departDelay="3.00" arrival="77.00" arrivalLane="1o_0" arrivalPos="489.60" arrivalSpeed="54.54" duration="31.00" routeLength="994.90" waitingTime="0.00" waitingCount="0" stopTime="0.00" timeLoss="13.09" rerouteNo="0" devices="tripinfo_f_0_2.2" vType="DEFAULT_VEHTYPE" speedFactor="1.18" vaporized=""/>
    <tripinfo id="f_0_0.13" depart="41.00" departLane="1i_0" departPos="5.10" departSpeed="0.00" departDelay="12.00" arrival="79.00" arrivalLane="2o_0" arrivalPos="489.60" arrivalSpeed="47.18" duration="38.00" routeLength="994.90" waitingTime="0.00" waitingCount="0" stopTime="0.00" timeLoss="19.38" rerouteNo="0" devices="tripinfo_f_0_0.13" vType="DEFAULT_VEHTYPE" speedFactor="1.16" vaporized=""/>
    <tripinfo id="f_0_0.14" depart="44.00" departLane="1i_0" departPos="5.10" departSpeed="0.00" departDelay="14.00" arrival="79.00" arrivalLane="2o_1" arrivalPos="489.60" arrivalSpeed="48.69" duration="35.00" routeLength="994.90" waitingTime="0.00" waitingCount="0" stopTime="0.00" timeLoss="16.53" rerouteNo="0" devices="tripinfo_f_0_0.14" vType="DEFAULT_VEHTYPE" speedFactor="1.01" vaporized=""/>
    <tripinfo id="f_0_0.15" depart="47.00" departLane="1i_0" departPos="5.10" departSpeed="0.00" departDelay="16.00" arrival="81.00" arrivalLane="2o_0" arrivalPos="489.60" arrivalSpeed="51.80" duration="34.00" routeLength="994.90" waitingTime="0.00" waitingCount="0" stopTime="0.00" timeLoss="15.27" rerouteNo="0" devices="tripinfo_f_0_0.15" vType="DEFAULT_VEHTYPE" speedFactor="0.97" vaporized=""/>
    <tripinfo id="f_0_0.16" depart="50.00" departLane="1i_0" departPos="5.10" departSpeed="0.00" departDelay="18.00" arrival="82.00" arrivalLane="2o_0" arrivalPos="489.60" arrivalSpeed="49.29" duration="32.00" routeLength="994.90" waitingTime="0.00" waitingCount="0" stopTime="0.00" timeLoss="11.75" rerouteNo="0" devices="tripinfo_f_0_0.16" vType="DEFAULT_VEHTYPE" speedFactor="0.83" vaporized=""/>
    <tripinfo id="f_0_2.3" depart="49.00" departLane="2i_0" departPos="5.10" departSpeed="0.00" departDelay="5.00" arrival="82.00" arrivalLane="1o_0" arrivalPos="489.60" arrivalSpeed="53.01" duration="33.00" routeLength="994.90" waitingTime="0.00" waitingCount="0" stopTime="0.00" timeLoss="13.79" rerouteNo="0" devices="tripinfo_f_0_2.3" vType="DEFAULT_VEHTYPE" speedFactor="0.90" vaporized=""/>
    <tripinfo id="f_0_2.4" depart="52.00" departLane="2i_0" departPos="5.10" departSpeed="0.00" departDelay="7.00" arrival="84.00" arrivalLane="1o_0" arrivalPos="489.60" arrivalSpeed="54.94" duration="32.00" routeLength="994.90" waitingTime="0.00" waitingCount="0" stopTime="0.00" timeLoss="13.74" rerouteNo="0" devices="tripinfo_f_0_2.4" vType="DEFAULT_VEHTYPE" speedFactor="1.09" vaporized=""/>
    <tripinfo id="f_0_0.17" depart="53.00" departLane="1i_0" departPos="5.10" departSpeed="0.00" departDelay="20.00" arrival="86.00" arrivalLane="2o_0" arrivalPos="489.60" arrivalSpeed="51.59" duration="33.00" routeLength="994.90" waitingTime="0.00" waitingCount="0" stopTime="0.00" timeLoss="13.80" rerouteNo="0" devices="tripinfo_f_0_0.17" vType="DEFAULT_VEHTYPE" speedFactor="0.87" vaporized=""/>
    <tripinfo id="f_0_2.5" depart="55.00" departLane="2i_0" departPos="5.10" departSpeed="0.00" departDelay="9.00" arrival="87.00" arrivalLane="1o_0" arrivalPos="489.60" arrivalSpeed="55.15" duration="32.00" routeLength="994.90" waitingTime="0.00" waitingCount="0" stopTime="0.00" timeLoss="13.34" rerouteNo="0" devices="tripinfo_f_0_2.5" vType="DEFAULT_VEHTYPE" speedFactor="1.04" vaporized=""/>
    <tripinfo id="f_0_0.18" depart="56.00" departLane="1i_0" departPos="5.10" departSpeed="0.00" departDelay="22.00" arrival="89.00" arrivalLane="2o_0" arrivalPos="489.60" arrivalSpeed="54.57" duration="33.00" routeLength="994.90" waitingTime="0.00" waitingCount="0" stopTime="0.00" timeLoss="14.07" rerouteNo="0" devices="tripinfo_f_0_0.18" vType="DEFAULT_VEHTYPE" speedFactor="0.92" vaporized=""/>
    <tripinfo id="f_0_2.6" depart="58.00" departLane="2i_0" departPos="5.10" departSpeed="0.00" departDelay="11.00" arrival="90.00" arrivalLane="1o_0" arrivalPos="489.60" arrivalSpeed="55.18" duration="32.00" routeLength="994.90" waitingTime="0.00" waitingCount="0" stopTime="0.00" timeLoss="13.35" rerouteNo="0" devices="tripinfo_f_0_2.6" vType="DEFAULT_VEHTYPE" speedFactor="1.00" vaporized=""/>
    <tripinfo id="f_0_0.19" depart="59.00" departLane="1i_0" departPos="5.10" departSpeed="0.00" departDelay="21.00" arrival="92.00" arrivalLane="2o_0" arrivalPos="489.60" arrivalSpeed="55.01" duration="33.00" routeLength="994.90" waitingTime="0.00" waitingCount="0" stopTime="0.00" timeLoss="14.46" rerouteNo="0" devices="tripinfo_f_0_0.19" vType="DEFAULT_VEHTYPE" speedFactor="1.13" vaporized=""/>
    <tripinfo id="f_0_2.7" depart="61.00" departLane="2i_0" departPos="5.10" departSpeed="0.00" departDelay="12.00" arrival="95.00" arrivalLane="1o_0" arrivalPos="489.60" arrivalSpeed="52.07" duration="34.00" routeLength="994.90" waitingTime="0.00" waitingCount="0" stopTime="0.00" timeLoss="14.25" rerouteNo="0" devices="tripinfo_f_0_2.7" vType="DEFAULT_VEHTYPE" speedFactor="0.88" vaporized=""/>
    <tripinfo id="f_0_0.20" depart="62.00" departLane="1i_0" departPos="5.10" departSpeed="0.00" departDelay="23.00" arrival="96.00" arrivalLane="2o_0" arrivalPos="489.60" arrivalSpeed="54.81" duration="34.00" routeLength="994.90" waitingTime="0.00" waitingCount="0" stopTime="0.00" timeLoss="15.41" rerouteNo="0" devices="tripinfo_f_0_0.20" vType="DEFAULT_VEHTYPE" speedFactor="0.93" vaporized=""/>
    <tripinfo id="f_0_2.8" depart="64.00" departLane="2i_0" departPos="5.10" departSpeed="0.00" departDelay="14.00" arrival="96.00" arrivalLane="1o_0" arrivalPos="489.60" arrivalSpeed="50.18" duration="32.00" routeLength="994.90" waitingTime="0.00" waitingCount="0" stopTime="0.00" timeLoss="12.35" rerouteNo="0" devices="tripinfo_f_0_2.8" vType="DEFAULT_VEHTYPE" speedFactor="0.85" vaporized=""/>
    <tripinfo id="f_0_0.21" depart="65.00" departLane="1i_0" departPos="5.10" departSpeed="0.00" departDelay="25.00" arrival="97.00" arrivalLane="2o_0" arrivalPos="489.60" arrivalSpeed="54.69" duration="32.00" routeLength="994.90" waitingTime="0.00" waitingCount="0" stopTime="0.00" timeLoss="14.03" rerouteNo="0" devices="tripinfo_f_0_0.21" vType="DEFAULT_VEHTYPE" speedFactor="1.18" vaporized=""/>
    <tripinfo id="f_0_1.1" depart="26.00" departLane="4i_0" departPos="5.10" departSpeed="0.00" departDelay="2.00" arrival="112.00" arrivalLane="3o_1" arrivalPos="489.60" arrivalSpeed="43.87" duration="86.00" routeLength="994.90" waitingTime="36.00" waitingCount="1" stopTime="0.00" timeLoss="67.79" rerouteNo="0" devices="tripinfo_f_0_1.1" vType="DEFAULT_VEHTYPE" speedFactor="1.12" vaporized=""/>
    <tripinfo id="f_0_3.0" depart="80.00" departLane="3i_0" departPos="5.10" departSpeed="0.00" departDelay="0.00" arrival="112.00" arrivalLane="4o_0" arrivalPos="489.60" arrivalSpeed="53.26" duration="32.00" routeLength="994.90" waitingTime="0.00" waitingCount="0" stopTime="0.00" timeLoss="13.00" rerouteNo="0" devices="tripinfo_f_0_3.0" vType="DEFAULT_VEHTYPE" speedFactor="0.91" vaporized=""/>
    <tripinfo id="f_0_1.0" depart="23.00" departLane="4i_0" departPos="5.10" departSpeed="0.00" departDelay="0.00" arrival="113.00" arrivalLane="3o_0" arrivalPos="489.60" arrivalSpeed="44.76" duration="90.00" routeLength="994.90" waitingTime="40.00" waitingCount="1" stopTime="0.00" timeLoss="71.54" rerouteNo="0" devices="tripinfo_f_0_1.0" vType="DEFAULT_VEHTYPE" speedFactor="1.05" vaporized=""/>
    <tripinfo id="f_0_1.2" depart="29.00" departLane="4i_0" departPos="5.10" departSpeed="0.00" departDelay="4.00" arrival="113.00" arrivalLane="3o_1" arrivalPos="489.60" arrivalSpeed="43.87" duration="84.00" routeLength="994.90" waitingTime="35.00" waitingCount="1" stopTime="0.00" timeLoss="66.02" rerouteNo="0" devices="tripinfo_f_0_1.2" vType="DEFAULT_VEHTYPE" speedFactor="0.93" vaporized=""/>
    <tripinfo id="f_0_1.3" depart="32.00" departLane="4i_0" departPos="5.10" departSpeed="0.00" departDelay="6.00" arrival="114.00" arrivalLane="3o_0" arrivalPos="489.60" arrivalSpeed="42.66" duration="82.00" routeLength="994.90" waitingTime="28.00" waitingCount="1" stopTime="0.00" timeLoss="62.99" rerouteNo="0" devices="tripinfo_f_0_1.3" vType="DEFAULT_VEHTYPE" speedFactor="0.88" vaporized=""/>
    <tripinfo id="f_0_3.1" depart="83.00" departLane="3i_0" departPos="5.10" departSpeed="0.00" departDelay="2.00" arrival="114.00" arrivalLane="4o_0" arrivalPos="489.60" arrivalSpeed="55.00" duration="31.00" routeLength="994.90" waitingTime="0.00" waitingCount="0" stopTime="0.00" timeLoss="12.65" rerouteNo="0" devices="tripinfo_f_0_3.1" vType="DEFAULT_VEHTYPE" speedFactor="0.96" vaporized=""/>
    <tripinfo id="f_0_1.4" depart="35.00" departLane="4i_0" departPos="5.10" departSpeed="0.00" departDelay="8.00" arrival="115.00" arrivalLane="3o_1" arrivalPos="489.60" arrivalSpeed="45.05" duration="80.00" routeLength="994.90" waitingTime="30.00" waitingCount="1" stopTime="0.00" timeLoss="61.50" rerouteNo="0" devices="tripinfo_f_0_1.4" vType="DEFAULT_VEHTYPE" speedFactor="0.94" vaporized=""/>
    <tripinfo id="f_0_1.5" depart="38.00" departLane="4i_0" departPos="5.10" departSpeed="0.00" departDelay="10.00" arrival="116.00" arrivalLane="3o_0" arrivalPos="489.60" arrivalSpeed="44.20" duration="78.00" routeLength="994.90" waitingTime="22.00" waitingCount="1" stopTime="0.00" timeLoss="59.46" rerouteNo="0" devices="tripinfo_f_0_1.5" vType="DEFAULT_VEHTYPE" speedFactor="0.94" vaporized=""/>
    <tripinfo id="f_0_1.6" depart="41.00" departLane="4i_0" departPos="5.10" departSpeed="0.00" departDelay="12.00" arrival="116.00" arrivalLane="3o_1" arrivalPos="489.60" arrivalSpeed="45.31" duration="75.00" routeLength="994.90" waitingTime="24.00" waitingCount="1" stopTime="0.00" timeLoss="57.03" rerouteNo="0" devices="tripinfo_f_0_1.6" vType="DEFAULT_VEHTYPE" speedFactor="1.02" vaporized=""/>
    <tripinfo id="f_0_1.7" depart="44.00" departLane="4i_0" departPos="5.10" departSpeed="0.00" departDelay="13.00" arrival="117.00" arrivalLane="3o_0" arrivalPos="489.60" arrivalSpeed="43.40" duration="73.00" routeLength="994.90" waitingTime="20.00" waitingCount="1" stopTime="0.00" timeLoss="54.31" rerouteNo="0" devices="tripinfo_f_0_1.7" vType="DEFAULT_VEHTYPE" speedFactor="0.89" vaporized=""/>
    <tripinfo id="f_0_1.8" depart="47.00" departLane="4i_0" departPos="5.10" departSpeed="0.00" departDelay="10.00" arrival="118.00" arrivalLane="3o_1" arrivalPos="489.60" arrivalSpeed="46.64" duration="71.00" routeLength="994.90" waitingTime="19.00" waitingCount="1" stopTime="0.00" timeLoss="52.62" rerouteNo="0" devices="tripinfo_f_0_1.8" vType="DEFAULT_VEHTYPE" speedFactor="0.95" vaporized=""/>
    <tripinfo id="f_0_3.2" depart="86.00" departLane="3i_0" departPos="5.10" departSpeed="0.00" departDelay="1.00" arrival="118.00" arrivalLane="4o_0" arrivalPos="489.60" arrivalSpeed="55.19" duration="32.00" routeLength="994.90" waitingTime="0.00" waitingCount="0" stopTime="0.00" timeLoss="13.84" rerouteNo="0" devices="tripinfo_f_0_3.2" vType="DEFAULT_VEHTYPE" speedFactor="0.93" vaporized=""/>
    <tripinfo id="f_0_1.9" depart="50.00" departLane="4i_0" departPos="5.10" departSpeed="0.00" departDelay="9.00" arrival="119.00" arrivalLane="3o_0" arrivalPos="489.60" arrivalSpeed="44.38" duration="69.00" routeLength="994.90" waitingTime="12.00" waitingCount="2" stopTime="0.00" timeLoss="50.54" rerouteNo="0" devices="tripinfo_f_0_1.9" vType="DEFAULT_VEHTYPE" speedFactor="1.17" vaporized=""/>
    <tripinfo id="f_0_1.10" depart="53.00" departLane="4i_0" departPos="5.10" departSpeed="0.00" departDelay="11.00" arrival="120.00" arrivalLane="3o_1" arrivalPos="489.60" arrivalSpeed="44.40" duration="67.00" routeLength="994.90" waitingTime="12.00" waitingCount="1" stopTime="0.00" timeLoss="48.66" rerouteNo="0" devices="tripinfo_f_0_1.10" vType="DEFAULT_VEHTYPE" speedFactor="0.99" vaporized=""/>
    <tripinfo id="f_0_1.12" depart="59.00" departLane="4i_0" departPos="5.10" departSpeed="0.00" departDelay="14.00" arrival="120.00" arrivalLane="3o_0" arrivalPos="489.60" arrivalSpeed="43.06" duration="61.00" routeLength="994.90" waitingTime="8.00" waitingCount="1" stopTime="0.00" timeLoss="42.99" rerouteNo="0" devices="tripinfo_f_0_1.12" vType="DEFAULT_VEHTYPE" speedFactor="0.96" vaporized=""/>
    <tripinfo id="f_0_1.13" depart="62.00" departLane="4i_0" departPos="5.10" departSpeed="0.00" departDelay="16.00" arrival="121.00" arrivalLane="3o_1" arrivalPos="489.60" arrivalSpeed="45.37" duration="59.00" routeLength="994.90" waitingTime="2.00" waitingCount="1" stopTime="0.00" timeLoss="40.87" rerouteNo="0" devices="tripinfo_f_0_1.13" vType="DEFAULT_VEHTYPE" speedFactor="1.04" vaporized=""/>
    <tripinfo id="f_0_3.3" depart="89.00" departLane="3i_0" departPos="5.10" departSpeed="0.00" departDelay="3.00" arrival="121.00" arrivalLane="4o_0" arrivalPos="489.60" arrivalSpeed="51.42" duration="32.00" routeLength="994.90" waitingTime="0.00" waitingCount="0" stopTime="0.00" timeLoss="12.74" rerouteNo="0" devices="tripinfo_f_0_3.3" vType="DEFAULT_VEHTYPE" speedFactor="0.87" vaporized=""/>
    <tripinfo id="f_0_1.11" depart="56.00" departLane="4i_0" departPos="5.10" departSpeed="0.00" departDelay="13.00" arrival="122.00" arrivalLane="3o_0" arrivalPos="489.60" arrivalSpeed="45.49" duration="66.00" routeLength="994.90" waitingTime="11.00" waitingCount="1" stopTime="0.00" timeLoss="47.48" rerouteNo="0" devices="tripinfo_f_0_1.11" vType="DEFAULT_VEHTYPE" speedFactor="0.97" vaporized=""/>
    <tripinfo id="f_0_1.14" depart="65.00" departLane="4i_0" departPos="5.10" departSpeed="0.00" departDelay="17.00" arrival="123.00" arrivalLane="3o_1" arrivalPos="489.60" arrivalSpeed="47.59" duration="58.00" routeLength="994.90" waitingTime="2.00" waitingCount="1" stopTime="0.00" timeLoss="38.84" rerouteNo="0" devices="tripinfo_f_0_1.14" vType="DEFAULT_VEHTYPE" speedFactor="0.90" vaporized=""/>
    <tripinfo id="f_0_1.16" depart="71.00" departLane="4i_0" departPos="5.10" departSpeed="0.00" departDelay="16.00" arrival="123.00" arrivalLane="3o_0" arrivalPos="489.60" arrivalSpeed="45.04" duration="52.00" routeLength="994.90" waitingTime="0.00" waitingCount="0" stopTime="0.00" timeLoss="34.06" rerouteNo="0" devices="tripinfo_f_0_1.16" vType="DEFAULT_VEHTYPE" speedFactor="1.14" vaporized=""/>
    <tripinfo id="f_0_1.17" depart="74.00" departLane="4i_0" departPos="5.10" departSpeed="0.00" departDelay="18.00" arrival="124.00" arrivalLane="3o_1" arrivalPos="489.60" arrivalSpeed="45.67" duration="50.00" routeLength="994.90" waitingTime="0.00" waitingCount="0" stopTime="0.00" timeLoss="31.80" rerouteNo="0" devices="tripinfo_f_0_1.17" vType="DEFAULT_VEHTYPE" speedFactor="0.97" vaporized=""/>
    <tripinfo id="f_0_3.4" depart="92.00" departLane="3i_0" departPos="5.10" departSpeed="0.00" departDelay="5.00" arrival="124.00" arrivalLane="4o_0" arrivalPos="489.60" arrivalSpeed="54.97" duration="32.00" routeLength="994.90" waitingTime="0.00" waitingCount="0" stopTime="0.00" timeLoss="13.25" rerouteNo="0" devices="tripinfo_f_0_3.4" vType="DEFAULT_VEHTYPE" speedFactor="1.10" vaporized=""/>
    <tripinfo id="f_0_1.15" depart="68.00" departLane="4i_0" departPos="5.10" departSpeed="0.00" departDelay="17.00" arrival="125.00" arrivalLane="3o_0" arrivalPos="489.60" arrivalSpeed="45.47" duration="57.00" routeLength="994.90" waitingTime="2.00" waitingCount="1" stopTime="0.00" timeLoss="38.51" rerouteNo="0" devices="tripinfo_f_0_1.15" vType="DEFAULT_VEHTYPE" speedFactor="1.02" vaporized=""/>
    <tripinfo id="f_0_1.19" depart="80.00" departLane="4i_0" departPos="5.10" departSpeed="0.00" departDelay="20.00" arrival="125.00" arrivalLane="3o_1" arrivalPos="489.60" arrivalSpeed="45.21" duration="45.00" routeLength="994.90" waitingTime="0.00" waitingCount="0" stopTime="0.00" timeLoss="26.67" rerouteNo="0" devices="tripinfo_f_0_1.19" vType="DEFAULT_VEHTYPE" speedFactor="0.91" vaporized=""/>
    <tripinfo id="f_0_1.18" depart="77.00" departLane="4i_0" departPos="5.10" departSpeed="0.00" departDelay="19.00" arrival="126.00" arrivalLane="3o_0" arrivalPos="489.60" arrivalSpeed="43.71" duration="49.00" routeLength="994.90" waitingTime="0.00" waitingCount="0" stopTime="0.00" timeLoss="31.06" rerouteNo="0" devices="tripinfo_f_0_1.18" vType="DEFAULT_VEHTYPE" speedFactor="1.02" vaporized=""/>
    <tripinfo id="f_0_1.20" depart="83.00" departLane="4i_0" departPos="5.10" departSpeed="0.00" departDelay="20.00" arrival="127.00" arrivalLane="3o_1" arrivalPos="489.60" arrivalSpeed="48.12" duration="44.00" routeLength="994.90" waitingTime="0.00" waitingCount="0" stopTime="0.00" timeLoss="25.38" rerouteNo="0" devices="tripinfo_f_0_1.20" vType="DEFAULT_VEHTYPE" speedFactor="1.02" vaporized=""/>
    <tripinfo id="f_0_3.5" depart="95.00" departLane="3i_0" departPos="5.10" departSpeed="0.00" departDelay="6.00" arrival="127.00" arrivalLane="4o_0" arrivalPos="489.60" arrivalSpeed="55.53" duration="32.00" routeLength="994.90" waitingTime="0.00" waitingCount="0" stopTime="0.00" timeLoss="13.48" rerouteNo="0" devices="tripinfo_f_0_3.5" vType="DEFAULT_VEHTYPE" speedFactor="0.99" vaporized=""/>
    <tripinfo id="f_0_1.21" depart="86.00" departLane="4i_0" departPos="5.10" departSpeed="0.00" departDelay="22.00" arrival="128.00" arrivalLane="3o_1" arrivalPos="489.60" arrivalSpeed="47.67" duration="42.00" routeLength="994.90" waitingTime="0.00" waitingCount="0" stopTime="0.00" timeLoss="23.72" rerouteNo="0" devices="tripinfo_f_0_1.21" vType="DEFAULT_VEHTYPE" speedFactor="0.94" vaporized=""/>
    <tripinfo id="f_0_1.22" depart="89.00" departLane="4i_0" departPos="5.10" departSpeed="0.00" departDelay="20.00" arrival="129.00" arrivalLane="3o_1" arrivalPos="489.60" arrivalSpeed="46.89" duration="40.00" routeLength="994.90" waitingTime="0.00" waitingCount="0" stopTime="0.00" timeLoss="22.08" rerouteNo="0" devices="tripinfo_f_0_1.22" vType="DEFAULT_VEHTYPE" speedFactor="1.03" vaporized=""/>
    <tripinfo id="f_0_3.6" depart="98.00" departLane="3i_0" departPos="5.10" departSpeed="0.00" departDelay="8.00" arrival="130.00" arrivalLane="4o_0" arrivalPos="489.60" arrivalSpeed="54.98" duration="32.00" routeLength="994.90" waitingTime="0.00" waitingCount="0" stopTime="0.00" timeLoss="13.94" rerouteNo="0" devices="tripinfo_f_0_3.6" vType="DEFAULT_VEHTYPE" speedFactor="0.94" vaporized=""/>
    <tripinfo id="f_0_1.23" depart="92.00" departLane="4i_0" departPos="5.10" departSpeed="0.00" departDelay="22.00" arrival="131.00" arrivalLane="3o_0" arrivalPos="489.60" arrivalSpeed="51.01" duration="39.00" routeLength="994.90" waitingTime="0.00" waitingCount="0" stopTime="0.00" timeLoss="20.23" rerouteNo="0" devices="tripinfo_f_0_1.23" vType="DEFAULT_VEHTYPE" speedFactor="1.01" vaporized=""/>
    <tripinfo id="f_0_1.24" depart="95.00" departLane="4i_0" departPos="5.10" departSpeed="0.00" departDelay="23.00" arrival="131.00" arrivalLane="3o_1" arrivalPos="489.60" arrivalSpeed="48.62" duration="36.00" routeLength="994.90" waitingTime="0.00" waitingCount="0" stopTime="0.00" timeLoss="17.66" rerouteNo="0" devices="tripinfo_f_0_1.24" vType="DEFAULT_VEHTYPE" speedFactor="1.02" vaporized=""/>
    <tripinfo id="f_0_3.7" depart="101.00" departLane="3i_0" departPos="5.10" departSpeed="0.00" departDelay="10.00" arrival="132.00" arrivalLane="4o_0" arrivalPos="489.60" arrivalSpeed="55.11" duration="31.00" routeLength="994.90" waitingTime="0.00" waitingCount="0" stopTime="0.00" timeLoss="13.08" rerouteNo="0" devices="tripinfo_f_0_3.7" vType="DEFAULT_VEHTYPE" speedFactor="1.10" vaporized=""/>
    <tripinfo id="f_0_1.25" depart="98.00" departLane="4i_0" departPos="5.10" departSpeed="0.00" departDelay="25.00" arrival="133.00" arrivalLane="3o_1" arrivalPos="489.60" arrivalSpeed="50.33" duration="35.00" routeLength="994.90" waitingTime="0.00" waitingCount="0" stopTime="0.00" timeLoss="16.25" rerouteNo="0" devices="tripinfo_f_0_1.25" vType="DEFAULT_VEHTYPE" speedFactor="1.15" vaporized=""/>
    <tripinfo id="f_0_1.26" depart="101.00" departLane="4i_0" departPos="5.10" departSpeed="0.00" departDelay="27.00" arrival="134.00" arrivalLane="3o_0" arrivalPos="489.60" arrivalSpeed="52.51" duration="33.00" routeLength="994.90" waitingTime="0.00" waitingCount="0" stopTime="0.00" timeLoss="14.60" rerouteNo="0" devices="tripinfo_f_0_1.26" vType="DEFAULT_VEHTYPE" speedFactor="0.98" vaporized=""/>
    <tripinfo id="f_0_1.27" depart="104.00" departLane="4i_0" departPos="5.10" departSpeed="0.00" departDelay="27.00" arrival="136.00" arrivalLane="3o_0" arrivalPos="489.60" arrivalSpeed="54.67" duration="32.00" routeLength="994.90" waitingTime="0.00" waitingCount="0" stopTime="0.00" timeLoss="13.72" rerouteNo="0" devices="tripinfo_f_0_1.27" vType="DEFAULT_VEHTYPE" speedFactor="1.02" vaporized=""/>
    <tripinfo id="f_0_3.8" depart="104.00" departLane="3i_0" departPos="5.10" departSpeed="0.00" departDelay="12.00" arrival="136.00" arrivalLane="4o_0" arrivalPos="489.60" arrivalSpeed="54.31" duration="32.00" routeLength="994.90" waitingTime="0.00" waitingCount="0" stopTime="0.00" timeLoss="13.26" rerouteNo="0" devices="tripinfo_f_0_3.8" vType="DEFAULT_VEHTYPE" speedFactor="1.06" vaporized=""/>
    <tripinfo id="f_0_1.28" depart="107.00" departLane="4i_0" departPos="5.10" departSpeed="0.00" departDelay="27.00" arrival="140.00" arrivalLane="3o_0" arrivalPos="489.60" arrivalSpeed="54.64" duration="33.00" routeLength="994.90" waitingTime="0.00" waitingCount="0" stopTime="0.00" timeLoss="14.54" rerouteNo="0" devices="tripinfo_f_0_1.28" vType="DEFAULT_VEHTYPE" speedFactor="1.01" vaporized=""/>
    <tripinfo id="f_0_3.9" depart="107.00" departLane="3i_0" departPos="5.10" departSpeed="0.00" departDelay="13.00" arrival="140.00" arrivalLane="4o_0" arrivalPos="489.60" arrivalSpeed="54.81" duration="33.00" routeLength="994.90" waitingTime="0.00" waitingCount="0" stopTime="0.00" timeLoss="14.28" rerouteNo="0" devices="tripinfo_f_0_3.9" vType="DEFAULT_VEHTYPE" speedFactor="1.01" vaporized=""/>
    <tripinfo id="f_0_3.10" depart="110.00" departLane="3i_0" departPos="5.10" departSpeed="0.00" departDelay="15.00" arrival="141.00" arrivalLane="4o_0" arrivalPos="489.60" arrivalSpeed="55.44" duration="31.00" routeLength="994.90" waitingTime="0.00" waitingCount="0" stopTime="0.00" timeLoss="13.06" rerouteNo="0" devices="tripinfo_f_0_3.10" vType="DEFAULT_VEHTYPE" speedFactor="0.96" vaporized=""/>
    <tripinfo id="f_0_1.29" depart="110.00" departLane="4i_0" departPos="5.10" departSpeed="0.00" departDelay="29.00" arrival="142.00" arrivalLane="3o_0" arrivalPos="489.60" arrivalSpeed="55.22" duration="32.00" routeLength="994.90" waitingTime="0.00" waitingCount="0" stopTime="0.00" timeLoss="13.86" rerouteNo="0" devices="tripinfo_f_0_1.29" vType="DEFAULT_VEHTYPE" speedFactor="1.10" vaporized=""/>