<?xml version="1.0" encoding="UTF-8"?>

<!-- generated on 2024-08-23 17:21:51 by Eclipse SUMO sumo Version 1.17.0
<configuration xmlns:xsi="http://www.w3.org/2001/XMLSchema-instance" xsi:noNamespaceSchemaLocation="http://sumo.dlr.de/xsd/sumoConfiguration.xsd">

    <input>
        <net-file value="project_no_lights.net.xml"/>
        <route-files value="project_3.rou.xml"/>
    </input>

    <output>
        <summary-output value="control_summaries\summary_project_no_lights_3.xml"/>
        <tripinfo-output value="control_summaries\tripinfos_project_no_lights_3.xml"/>
    </output>

    <processing>
        <time-to-teleport value="-1"/>
    </processing>

    <traci_server>
        <remote-port value="65264"/>
    </traci_server>

</configuration>
-->

<tripinfos xmlns:xsi="http://www.w3.org/2001/XMLSchema-instance" xsi:noNamespaceSchemaLocation="http://sumo.dlr.de/xsd/tripinfo_file.xsd">
    <tripinfo id="f_0_0.0" depart="2.00" departLane="1i_0" departPos="5.10" departSpeed="0.00" departDelay="0.00" arrival="48.00" arrivalLane="2o_0" arrivalPos="489.60" arrivalSpeed="44.60" duration="46.00" routeLength="994.90" waitingTime="0.00" waitingCount="0" stopTime="0.00" timeLoss="28.06" rerouteNo="0" devices="tripinfo_f_0_0.0" vType="DEFAULT_VEHTYPE" speedFactor="1.06" vaporized=""/>
    <tripinfo id="f_0_0.1" depart="5.00" departLane="1i_0" departPos="5.10" departSpeed="0.00" departDelay="0.00" arrival="50.00" arrivalLane="2o_1" arrivalPos="489.60" arrivalSpeed="43.27" duration="45.00" routeLength="994.90" waitingTime="0.00" waitingCount="0" stopTime="0.00" timeLoss="26.80" rerouteNo="0" devices="tripinfo_f_0_0.1" vType="DEFAULT_VEHTYPE" speedFactor="0.94" vaporized=""/>
    <tripinfo id="f_0_0.2" depart="8.00" departLane="1i_0" departPos="5.10" departSpeed="0.00" departDelay="1.00" arrival="53.00" arrivalLane="2o_1" arrivalPos="489.60" arrivalSpeed="44.94" duration="45.00" routeLength="994.90" waitingTime="0.00" waitingCount="0" stopTime="0.00" timeLoss="26.83" rerouteNo="0" devices="tripinfo_f_0_0.2" vType="DEFAULT_VEHTYPE" speedFactor="1.01" vaporized=""/>
    <tripinfo id="f_0_1.0" depart="23.00" departLane="4i_0" departPos="5.10" departSpeed="0.00" departDelay="0.00" arrival="55.00" arrivalLane="3o_0" arrivalPos="489.60" arrivalSpeed="50.31" duration="32.00" routeLength="994.90" waitingTime="0.00" waitingCount="0" stopTime="0.00" timeLoss="12.19" rerouteNo="0" devices="tripinfo_f_0_1.0" vType="DEFAULT_VEHTYPE" speedFactor="0.86" vaporized=""/>
    <tripinfo id="f_0_0.3" depart="11.00" departLane="1i_0" departPos="5.10" departSpeed="0.00" departDelay="1.00" arrival="58.00" arrivalLane="2o_1" arrivalPos="489.60" arrivalSpeed="44.23" duration="47.00" routeLength="994.90" waitingTime="0.00" waitingCount="0" stopTime="0.00" timeLoss="28.91" rerouteNo="0" devices="tripinfo_f_0_0.3" vType="DEFAULT_VEHTYPE" speedFactor="1.08" vaporized=""/>
    <tripinfo id="f_0_1.1" depart="26.00" departLane="4i_0" departPos="5.10" departSpeed="0.00" departDelay="2.00" arrival="58.00" arrivalLane="3o_0" arrivalPos="489.60" arrivalSpeed="54.28" duration="32.00" routeLength="994.90" waitingTime="0.00" waitingCount="0" stopTime="0.00" timeLoss="13.77" rerouteNo="0" devices="tripinfo_f_0_1.1" vType="DEFAULT_VEHTYPE" speedFactor="1.09" vaporized=""/>
    <tripinfo id="f_0_1.2" depart="29.00" departLane="4i_0" departPos="5.10" departSpeed="0.00" departDelay="4.00" arrival="60.00" arrivalLane="3o_0" arrivalPos="489.60" arrivalSpeed="55.39" duration="31.00" routeLength="994.90" waitingTime="0.00" waitingCount="0" stopTime="0.00" timeLoss="12.87" rerouteNo="0" devices="tripinfo_f_0_1.2" vType="DEFAULT_VEHTYPE" speedFactor="1.05" vaporized=""/>
    <tripinfo id="f_0_1.3" depart="32.00" departLane="4i_0" departPos="5.10" departSpeed="0.00" departDelay="6.00" arrival="65.00" arrivalLane="3o_0" arrivalPos="489.60" arrivalSpeed="55.51" duration="33.00" routeLength="994.90" waitingTime="0.00" waitingCount="0" stopTime="0.00" timeLoss="14.23" rerouteNo="0" devices="tripinfo_f_0_1.3" vType="DEFAULT_VEHTYPE" speedFactor="1.12" vaporized=""/>
    <tripinfo id="f_0_1.4" depart="35.00" departLane="4i_0" departPos="5.10" departSpeed="0.00" departDelay="8.00" arrival="66.00" arrivalLane="3o_0" arrivalPos="489.60" arrivalSpeed="54.86" duration="31.00" routeLength="994.90" waitingTime="0.00" waitingCount="0" stopTime="0.00" timeLoss="13.08" rerouteNo="0" devices="tripinfo_f_0_1.4" vType="DEFAULT_VEHTYPE" speedFactor="0.99" vaporized=""/>
    <tripinfo id="f_0_1.5" depart="38.00" departLane="4i_0" departPos="5.10" departSpeed="0.00" departDelay="10.00" arrival="70.00" arrivalLane="3o_0" arrivalPos="489.60" arrivalSpeed="54.54" duration="32.00" routeLength="994.90" waitingTime="0.00" waitingCount="0" stopTime="0.00" timeLoss="13.44" rerouteNo="0" devices="tripinfo_f_0_1.5" vType="DEFAULT_VEHTYPE" speedFactor="0.93" vaporized=""/>
    <tripinfo id="f_0_1.6" depart="41.00" departLane="4i_0" departPos="5.10" departSpeed="0.00" departDelay="12.00" arrival="73.00" arrivalLane="3o_0" arrivalPos="489.60" arrivalSpeed="55.36" duration="32.00" routeLength="994.90" waitingTime="0.00" waitingCount="0" stopTime="0.00" timeLoss="13.21" rerouteNo="0" devices="tripinfo_f_0_1.6" vType="DEFAULT_VEHTYPE" speedFactor="0.94" vaporized=""/>
    <tripinfo id="f_0_1.7" depart="44.00" departLane="4i_0" departPos="5.10" departSpeed="0.00" departDelay="13.00" arrival="76.00" arrivalLane="3o_0" arrivalPos="489.60" arrivalSpeed="55.18" duration="32.00" routeLength="994.90" waitingTime="0.00" waitingCount="0" stopTime="0.00" timeLoss="13.77" rerouteNo="0" devices="tripinfo_f_0_1.7" vType="DEFAULT_VEHTYPE" speedFactor="1.16" vaporized=""/>
    <tripinfo id="f_0_1.8" depart="47.00" departLane="4i_0" departPos="5.10" departSpeed="0.00" departDelay="10.00" arrival="80.00" arrivalLane="3o_0" arrivalPos="489.60" arrivalSpeed="53.23" duration="33.00" routeLength="994.90" waitingTime="0.00" waitingCount="0" stopTime="0.00" timeLoss="13.68" rerouteNo="0" devices="tripinfo_f_0_1.8" vType="DEFAULT_VEHTYPE" speedFactor="0.89" vaporized=""/>
    <tripinfo id="f_0_1.9" depart="50.00" departLane="4i_0" departPos="5.10" departSpeed="0.00" departDelay="9.00" arrival="82.00" arrivalLane="3o_0" arrivalPos="489.60" arrivalSpeed="54.81" duration="32.00" routeLength="994.90" waitingTime="0.00" waitingCount="0" stopTime="0.00" timeLoss="13.77" rerouteNo="0" devices="tripinfo_f_0_1.9" vType="DEFAULT_VEHTYPE" speedFactor="1.13" vaporized=""/>
    <tripinfo id="f_0_1.10" depart="53.00" departLane="4i_0" departPos="5.10" departSpeed="0.00" departDelay="11.00" arrival="86.00" arrivalLane="3o_0" arrivalPos="489.60" arrivalSpeed="55.53" duration="33.00" routeLength="994.90" waitingTime="0.00" waitingCount="0" stopTime="0.00" timeLoss="14.30" rerouteNo="0" devices="tripinfo_f_0_1.10" vType="DEFAULT_VEHTYPE" speedFactor="0.93" vaporized=""/>
    <tripinfo id="f_0_1.11" depart="56.00" departLane="4i_0" departPos="5.10" departSpeed="0.00" departDelay="13.00" arrival="88.00" arrivalLane="3o_0" arrivalPos="489.60" arrivalSpeed="54.91" duration="32.00" routeLength="994.90" waitingTime="0.00" waitingCount="0" stopTime="0.00" timeLoss="13.62" rerouteNo="0" devices="tripinfo_f_0_1.11" vType="DEFAULT_VEHTYPE" speedFactor="1.15" vaporized=""/>
    <tripinfo id="f_0_1.12" depart="59.00" departLane="4i_0" departPos="5.10" departSpeed="0.00" departDelay="14.00" arrival="91.00" arrivalLane="3o_0" arrivalPos="489.60" arrivalSpeed="54.60" duration="32.00" routeLength="994.90" waitingTime="0.00" waitingCount="0" stopTime="0.00" timeLoss="13.47" rerouteNo="0" devices="tripinfo_f_0_1.12" vType="DEFAULT_VEHTYPE" speedFactor="0.97" vaporized=""/>
    <tripinfo id="f_0_1.13" depart="62.00" departLane="4i_0" departPos="5.10" departSpeed="0.00" departDelay="16.00" arrival="96.00" arrivalLane="3o_0" arrivalPos="489.60" arrivalSpeed="54.55" duration="34.00" routeLength="994.90" waitingTime="0.00" waitingCount="0" stopTime="0.00" timeLoss="15.27" rerouteNo="0" devices="tripinfo_f_0_1.13" vType="DEFAULT_VEHTYPE" speedFactor="1.10" vaporized=""/>
    <tripinfo id="f_0_1.14" depart="65.00" departLane="4i_0" departPos="5.10" departSpeed="0.00" departDelay="17.00" arrival="97.00" arrivalLane="3o_0" arrivalPos="489.60" arrivalSpeed="54.94" duration="32.00" routeLength="994.90" waitingTime="0.00" waitingCount="0" stopTime="0.00" timeLoss="13.80" rerouteNo="0" devices="tripinfo_f_0_1.14" vType="DEFAULT_VEHTYPE" speedFactor="0.96" vaporized=""/>
    <tripinfo id="f_0_1.15" depart="68.00" departLane="4i_0" departPos="5.10" departSpeed="0.00" departDelay="17.00" arrival="100.00" arrivalLane="3o_0" arrivalPos="489.60" arrivalSpeed="55.08" duration="32.00" routeLength="994.90" waitingTime="0.00" waitingCount="0" stopTime="0.00" timeLoss="14.04" rerouteNo="0" devices="tripinfo_f_0_1.15" vType="DEFAULT_VEHTYPE" speedFactor="1.09" vaporized=""/>
    <tripinfo id="f_0_1.16" depart="71.00" departLane="4i_0" departPos="5.10" departSpeed="0.00" departDelay="15.00" arrival="103.00" arrivalLane="3o_0" arrivalPos="489.60" arrivalSpeed="52.18" duration="32.00" routeLength="994.90" waitingTime="0.00" waitingCount="0" stopTime="0.00" timeLoss="12.26" rerouteNo="0" devices="tripinfo_f_0_1.16" vType="DEFAULT_VEHTYPE" speedFactor="0.88" vaporized=""/>
    <tripinfo id="f_0_1.17" depart="74.00" departLane="4i_0" departPos="5.10" departSpeed="0.00" departDelay="16.00" arrival="106.00" arrivalLane="3o_0" arrivalPos="489.60" arrivalSpeed="51.07" duration="32.00" routeLength="994.90" waitingTime="0.00" waitingCount="0" stopTime="0.00" timeLoss="12.56" rerouteNo="0" devices="tripinfo_f_0_1.17" vType="DEFAULT_VEHTYPE" speedFactor="0.85" vaporized=""/>
    <tripinfo id="f_0_1.18" depart="77.00" departLane="4i_0" departPos="5.10" departSpeed="0.00" departDelay="17.00" arrival="110.00" arrivalLane="3o_0" arrivalPos="489.60" arrivalSpeed="55.51" duration="33.00" routeLength="994.90" waitingTime="0.00" waitingCount="0" stopTime="0.00" timeLoss="14.42" rerouteNo="0" devices="tripinfo_f_0_1.18" vType="DEFAULT_VEHTYPE" speedFactor="1.10" vaporized=""/>
    <tripinfo id="f_0_3.0" depart="80.00" departLane="3i_0" departPos="5.10" departSpeed="0.00" departDelay="0.00" arrival="112.00" arrivalLane="4o_0" arrivalPos="489.60" arrivalSpeed="54.42" duration="32.00" routeLength="994.90" waitingTime="0.00" waitingCount="0" stopTime="0.00" timeLoss="13.29" rerouteNo="0" devices="tripinfo_f_0_3.0" vType="DEFAULT_VEHTYPE" speedFactor="0.98" vaporized=""/>
    <tripinfo id="f_0_1.19" depart="80.00" departLane="4i_0" departPos="5.10" departSpeed="0.00" departDelay="16.00" arrival="113.00" arrivalLane="3o_0" arrivalPos="489.60" arrivalSpeed="55.17" duration="33.00" routeLength="994.90" waitingTime="0.00" waitingCount="0" stopTime="0.00" timeLoss="14.19" rerouteNo="0" devices="tripinfo_f_0_1.19" vType="DEFAULT_VEHTYPE" speedFactor="1.02" vaporized=""/>
    <tripinfo id="f_0_3.1" depart="83.00" departLane="3i_0" departPos="5.10" departSpeed="0.00" departDelay="2.00" arrival="114.00" arrivalLane="4o_0" arrivalPos="489.60" arrivalSpeed="55.00" duration="31.00" routeLength="994.90" waitingTime="0.00" waitingCount="0" stopTime="0.00" timeLoss="12.65" rerouteNo="0" devices="tripinfo_f_0_3.1" vType="DEFAULT_VEHTYPE" speedFactor="1.09" vaporized=""/>
    <tripinfo id="f_0_1.20" depart="83.00" departLane="4i_0" departPos="5.10" departSpeed="0.00" departDelay="14.00" arrival="115.00" arrivalLane="3o_0" arrivalPos="489.60" arrivalSpeed="55.21" duration="32.00" routeLength="994.90" waitingTime="0.00" waitingCount="0" stopTime="0.00" timeLoss="14.05" rerouteNo="0" devices="tripinfo_f_0_1.20" vType="DEFAULT_VEHTYPE" speedFactor="1.12" vaporized=""/>
    <tripinfo id="f_0_3.2" depart="86.00" departLane="3i_0" departPos="5.10" departSpeed="0.00" departDelay="1.00" arrival="118.00" arrivalLane="4o_0" arrivalPos="489.60" arrivalSpeed="55.19" duration="32.00" routeLength="994.90" waitingTime="0.00" waitingCount="0" stopTime="0.00" timeLoss="13.84" rerouteNo="0" devices="tripinfo_f_0_3.2" vType="DEFAULT_VEHTYPE" speedFactor="1.00" vaporized=""/>
    <tripinfo id="f_0_1.21" depart="86.00" departLane="4i_0" departPos="5.10" departSpeed="0.00" departDelay="13.00" arrival="119.00" arrivalLane="3o_0" arrivalPos="489.60" arrivalSpeed="54.14" duration="33.00" routeLength="994.90" waitingTime="0.00" waitingCount="0" stopTime="0.00" timeLoss="14.09" rerouteNo="0" devices="tripinfo_f_0_1.21" vType="DEFAULT_VEHTYPE" speedFactor="0.91" vaporized=""/>
    <tripinfo id="f_0_1.22" depart="89.00" departLane="4i_0" departPos="5.10" departSpeed="0.00" departDelay="15.00" arrival="121.00" arrivalLane="3o_0" arrivalPos="489.60" arrivalSpeed="54.16" duration="32.00" routeLength="994.90" waitingTime="0.00" waitingCount="0" stopTime="0.00" timeLoss="13.84" rerouteNo="0" devices="tripinfo_f_0_1.22" vType="DEFAULT_VEHTYPE" speedFactor="0.91" vaporized=""/>
    <tripinfo id="f_0_3.3" depart="89.00" departLane="3i_0" departPos="5.10" departSpeed="0.00" departDelay="3.00" arrival="121.00" arrivalLane="4o_0" arrivalPos="489.60" arrivalSpeed="55.02" duration="32.00" routeLength="994.90" waitingTime="0.00" waitingCount="0" stopTime="0.00" timeLoss="13.62" rerouteNo="0" devices="tripinfo_f_0_3.3" vType="DEFAULT_VEHTYPE" speedFactor="1.04" vaporized=""/>
    <tripinfo id="f_0_3.4" depart="92.00" departLane="3i_0" departPos="5.10" departSpeed="0.00" departDelay="5.00" arrival="124.00" arrivalLane="4o_0" arrivalPos="489.60" arrivalSpeed="54.97" duration="32.00" routeLength="994.90" waitingTime="0.00" waitingCount="0" stopTime="0.00" timeLoss="13.25" rerouteNo="0" devices="tripinfo_f_0_3.4" vType="DEFAULT_VEHTYPE" speedFactor="1.02" vaporized=""/>
    <tripinfo id="f_0_1.23" depart="92.00" departLane="4i_0" departPos="5.10" departSpeed="0.00" departDelay="15.00" arrival="125.00" arrivalLane="3o_0" arrivalPos="489.60" arrivalSpeed="54.71" duration="33.00" routeLength="994.90" waitingTime="0.00" waitingCount="0" stopTime="0.00" timeLoss="14.77" rerouteNo="0" devices="tripinfo_f_0_1.23" vType="DEFAULT_VEHTYPE" speedFactor="1.02" vaporized=""/>
    <tripinfo id="f_0_1.24" depart="95.00" departLane="4i_0" departPos="5.10" departSpeed="0.00" departDelay="15.00" arrival="127.00" arrivalLane="3o_0" arrivalPos="489.60" arrivalSpeed="54.70" duration="32.00" routeLength="994.90" waitingTime="0.00" waitingCount="0" stopTime="0.00" timeLoss="13.88" rerouteNo="0" devices="tripinfo_f_0_1.24" vType="DEFAULT_VEHTYPE" speedFactor="0.96" vaporized=""/>
    <tripinfo id="f_0_3.5" depart="95.00" departLane="3i_0" departPos="5.10" departSpeed="0.00" departDelay="6.00" arrival="127.00" arrivalLane="4o_0" arrivalPos="489.60" arrivalSpeed="49.99" duration="32.00" routeLength="994.90" waitingTime="0.00" waitingCount="0" stopTime="0.00" timeLoss="12.10" rerouteNo="0" devices="tripinfo_f_0_3.5" vType="DEFAULT_VEHTYPE" speedFactor="0.83" vaporized=""/>
    <tripinfo id="f_0_1.25" depart="98.00" departLane="4i_0" departPos="5.10" departSpeed="0.00" departDelay="17.00" arrival="130.00" arrivalLane="3o_0" arrivalPos="489.60" arrivalSpeed="54.70" duration="32.00" routeLength="994.90" waitingTime="0.00" waitingCount="0" stopTime="0.00" timeLoss="13.32" rerouteNo="0" devices="tripinfo_f_0_1.25" vType="DEFAULT_VEHTYPE" speedFactor="0.98" vaporized=""/>
    <tripinfo id="f_0_3.6" depart="98.00" departLane="3i_0" departPos="5.10" departSpeed="0.00" departDelay="8.00" arrival="130.00" arrivalLane="4o_0" arrivalPos="489.60" arrivalSpeed="54.98" duration="32.00" routeLength="994.90" waitingTime="0.00" waitingCount="0" stopTime="0.00" timeLoss="13.94" rerouteNo="0" devices="tripinfo_f_0_3.6" vType="DEFAULT_VEHTYPE" speedFactor="1.09" vaporized=""/>
    <tripinfo id="f_0_3.7" depart="101.00" departLane="3i_0" departPos="5.10" departSpeed="0.00" departDelay="10.00" arrival="132.00" arrivalLane="4o_0" arrivalPos="489.60" arrivalSpeed="55.11" duration="31.00" routeLength="994.90" waitingTime="0.00" waitingCount="0" stopTime="0.00" timeLoss="12.99" rerouteNo="0" devices="tripinfo_f_0_3.7" vType="DEFAULT_VEHTYPE" speedFactor="1.06" vaporized=""/>
    <tripinfo id="f_0_1.26" depart="101.00" departLane="4i_0" departPos="5.10" departSpeed="0.00" departDelay="19.00" arrival="133.00" arrivalLane="3o_0" arrivalPos="489.60" arrivalSpeed="54.91" duration="32.00" routeLength="994.90" waitingTime="0.00" waitingCount="0" stopTime="0.00" timeLoss="13.44" rerouteNo="0" devices="tripinfo_f_0_1.26" vType="DEFAULT_VEHTYPE" speedFactor="1.03" vaporized=""/>
    <tripinfo id="f_0_1.27" depart="104.00" departLane="4i_0" departPos="5.10" departSpeed="0.00" departDelay="21.00" arrival="136.00" arrivalLane="3o_0" arrivalPos="489.60" arrivalSpeed="54.74" duration="32.00" routeLength="994.90" waitingTime="0.00" waitingCount="0" stopTime="0.00" timeLoss="13.84" rerouteNo="0" devices="tripinfo_f_0_1.27" vType="DEFAULT_VEHTYPE" speedFactor="1.02" vaporized=""/>
    <tripinfo id="f_0_3.8" depart="104.00" departLane="3i_0" departPos="5.10" departSpeed="0.00" departDelay="12.00" arrival="136.00" arrivalLane="4o_0" arrivalPos="489.60" arrivalSpeed="54.31" duration="32.00" routeLength="994.90" waitingTime="0.00" waitingCount="0" stopTime="0.00" timeLoss="13.32" rerouteNo="0" devices="tripinfo_f_0_3.8" vType="DEFAULT_VEHTYPE" speedFactor="1.12" vaporized=""/>
    <tripinfo id="f_0_3.9" depart="107.00" departLane="3i_0" departPos="5.10" departSpeed="0.00" departDelay="13.00" arrival="139.00" arrivalLane="4o_0" arrivalPos="489.60" arrivalSpeed="55.05" duration="32.00" routeLength="994.90" waitingTime="0.00" waitingCount="0" stopTime="0.00" timeLoss="13.87" rerouteNo="0" devices="tripinfo_f_0_3.9" vType="DEFAULT_VEHTYPE" speedFactor="0.97" vaporized=""/>
    <tripinfo id="f_0_1.28" depart="107.00" departLane="4i_0" departPos="5.10" departSpeed="0.00" departDelay="22.00" arrival="141.00" arrivalLane="3o_0" arrivalPos="489.60" arrivalSpeed="55.43" duration="34.00" routeLength="994.90" waitingTime="0.00" waitingCount="0" stopTime="0.00" timeLoss="15.19" rerouteNo="0" devices="tripinfo_f_0_1.28" vType="DEFAULT_VEHTYPE" speedFactor="0.98" vaporized=""/>
    <tripinfo id="f_0_1.29" depart="110.00" departLane="4i_0" departPos="5.10" departSpeed="0.00" departDelay="23.00" arrival="142.00" arrivalLane="3o_0" arrivalPos="489.60" arrivalSpeed="54.87" duration="32.00" routeLength="994.90" waitingTime="0.00" waitingCount="0" stopTime="0.00" timeLoss="13.70" rerouteNo="0" devices="tripinfo_f_0_1.29" vType="DEFAULT_VEHTYPE" speedFactor="1.01" vaporized=""/>
    <tripinfo id="f_0_3.10" depart="110.00" departLane="3i_0" departPos="5.10" departSpeed="0.00" departDelay="15.00" arrival="142.00" arrivalLane="4o_0" arrivalPos="489.60" arrivalSpeed="54.67" duration="32.00" routeLength="994.90" waitingTime="0.00" waitingCount="0" stopTime="0.00" timeLoss="13.30" rerouteNo="0" devices="tripinfo_f_0_3.10" vType="DEFAULT_VEHTYPE" speedFactor="1.07" vaporized=""/>
    <tripinfo id="f_0_1.30" depart="113.00" departLane="4i_0" departPos="5.10" departSpeed="0.00" departDelay="23.00" arrival="146.00" arrivalLane="3o_0" arrivalPos="489.60" arrivalSpeed="54.92" duration="33.00" routeLength="994.90" waitingTime="0.00" waitingCount="0" stopTime="0.00" timeLoss="14.27" rerouteNo="0" devices="tripinfo_f_0_1.30" vType="DEFAULT_VEHTYPE" speedFactor="0.92" vaporized=""/>
    <tripinfo id="f_0_3.11" depart="113.00" departLane="3i_0" departPos="5.10" departSpeed="0.00" departDelay="17.00" arrival="146.00" arrivalLane="4o_0" arrivalPos="489.60" arrivalSpeed="54.30" duration="33.00" routeLength="994.90" waitingTime="0.00" waitingCount="0" stopTime="0.00" timeLoss="15.04" rerouteNo="0" devices="tripinfo_f_0_3.11" vType="DEFAULT_VEHTYPE" speedFactor="1.06" vaporized=""/>
    <tripinfo id="f_0_1.31" depart="116.00" departLane="4i_0" departPos="5.10" departSpeed="0.00" departDelay="24.00" arrival="148.00" arrivalLane="3o_0" arrivalPos="489.60" arrivalSpeed="55.07" duration="32.00" routeLength="994.90" waitingTime="0.00" waitingCount="0" stopTime="0.00" timeLoss="13.82" rerouteNo="0" devices="tripinfo_f_0_1.31" vType="DEFAULT_VEHTYPE" speedFactor="1.01" vaporized=""/>
    <tripinfo id="f_0_3.12" depart="116.00" departLane="3i_0" departPos="5.10" departSpeed="0.00" departDelay="17.00" arrival="148.00" arrivalLane="4o_0" arrivalPos="489.60" arrivalSpeed="54.28" duration="32.00" routeLength="994.90" waitingTime="0.00" waitingCount="0" stopTime="0.00" timeLoss="13.45" rerouteNo="0" devices="tripinfo_f_0_3.12" vType="DEFAULT_VEHTYPE" speedFactor="1.10" vaporized=""/>
    <tripinfo id="f_0_1.32" depart="119.00" departLane="4i_0" departPos="5.10" departSpeed="0.00" departDelay="25.00" arrival="151.00" arrivalLane="3o_0" arrivalPos="489.60" arrivalSpeed="55.01" duration="32.00" routeLength="994.90" waitingTime="0.00" waitingCount="0" stopTime="0.00" timeLoss="13.95" rerouteNo="0" devices="tripinfo_f_0_1.32" vType="DEFAULT_VEHTYPE" speedFactor="0.96" vaporized=""/>
    <tripinfo id="f_0_1.33" depart="122.00" departLane="4i_0" departPos="5.10" departSpeed="0.00" departDelay="27.00" arrival="154.00" arrivalLane="3o_0" arrivalPos="489.60" arrivalSpeed="53.42" duration="32.00" routeLength="994.90" waitingTime="0.00" waitingCount="0" stopTime="0.00" timeLoss="13.39" rerouteNo="0" devices="tripinfo_f_0_1.33" vType="DEFAULT_VEHTYPE" speedFactor="0.89" vaporized=""/>
    <tripinfo id="f_0_1.34" depart="125.00" departLane="4i_0" departPos="5.10" departSpeed="0.00" departDelay="29.00" arrival="157.00" arrivalLane="3o_0" arrivalPos="489.60" arrivalSpeed="54.72" duration="32.00" routeLength="994.90" waitingTime="0.00" waitingCount="0" stopTime="0.00" timeLoss="13.87" rerouteNo="0" devices="tripinfo_f_0_1.34" vType="DEFAULT_VEHTYPE" speedFactor="1.03" vaporized=""/>
    <tripinfo id="f_0_1.35" depart="128.00" departLane="4i_0" departPos="5.10" departSpeed="0.00" departDelay="31.00" arrival="160.00" arrivalLane="3o_0" arrivalPos="489.60" arrivalSpeed="55.55" duration="32.00" routeLength="994.90" waitingTime="0.00" waitingCount="0" stopTime="0.00" timeLoss="13.94" rerouteNo="0" devices="tripinfo_f_0_1.35" vType="DEFAULT_VEHTYPE" speedFactor="0.93" vaporized=""/>
    <tripinfo id="f_0_0.4" depart="15.00" departLane="1i_0" departPos="5.10" departSpeed="0.00" departDelay="0.00" arrival="173.00" arrivalLane="2o_1" arrivalPos="489.60" arrivalSpeed="44.26" duration="158.00" routeLength="994.90" waitingTime="109.00" waitingCount="1" stopTime="0.00" timeLoss="139.82" rerouteNo="0" devices="tripinfo_f_0_0.4" vType="DEFAULT_VEHTYPE" speedFactor="1.03" vaporized=""/>
    <tripinfo id="f_0_0.5" depart="18.00" departLane="1i_0" departPos="5.10" departSpeed="0.00" departDelay="2.00" arrival="174.00" arrivalLane="2o_0" arrivalPos="489.60" arrivalSpeed="44.44" duration="156.00" routeLength="994.90" waitingTime="104.00" waitingCount="1" stopTime="0.00" timeLoss="135.28" rerouteNo="0" devices="tripinfo_f_0_0.5" vType="DEFAULT_VEHTYPE" speedFactor="0.83" vaporized=""/>
    <tripinfo id="f_0_2.1" depart="43.00" departLane="2i_0" departPos="5.10" departSpeed="0.00" departDelay="1.00" arrival="174.00" arrivalLane="1o_0" arrivalPos="489.60" arrivalSpeed="43.71" duration="131.00" routeLength="994.90" waitingTime="80.00" waitingCount="1" stopTime="0.00" timeLoss="112.62" rerouteNo="0" devices="tripinfo_f_0_2.1" vType="DEFAULT_VEHTYPE" speedFactor="1.18" vaporized=""/>
    <tripinfo id="f_0_0.6" depart="21.00" departLane="1i_0" departPos="5.10" departSpeed="0.00" departDelay="3.00" arrival="175.00" arrivalLane="2o_1" arrivalPos="489.60" arrivalSpeed="46.14" duration="154.00" routeLength="994.90" waitingTime="104.00" waitingCount="1" stopTime="0.00" timeLoss="136.05" rerouteNo="0" devices="tripinfo_f_0_0.6" vType="DEFAULT_VEHTYPE" speedFactor="1.05" vaporized=""/>
    <tripinfo id="f_0_0.7" depart="24.00" departLane="1i_0" departPos="5.10" departSpeed="0.00" departDelay="4.00" arrival="176.00" arrivalLane="2o_0" arrivalPos="489.60" arrivalSpeed="43.85" duration="152.00" routeLength="994.90" waitingTime="96.00" waitingCount="1" stopTime="0.00" timeLoss="132.98" rerouteNo="0" devices="tripinfo_f_0_0.7" vType="DEFAULT_VEHTYPE" speedFactor="0.89" vaporized=""/>
    <tripinfo id="f_0_2.0" depart="40.00" departLane="2i_0" departPos="5.10" departSpeed="0.00" departDelay="0.00" arrival="176.00" arrivalLane="1o_0" arrivalPos="489.60" arrivalSpeed="43.67" duration="136.00" routeLength="994.90" waitingTime="84.00" waitingCount="1" stopTime="0.00" timeLoss="117.18" rerouteNo="0" devices="tripinfo_f_0_2.0" vType="DEFAULT_VEHTYPE" speedFactor="0.92" vaporized=""/>
    <tripinfo id="f_0_2.2" depart="46.00" departLane="2i_0" departPos="5.10" departSpeed="0.00" departDelay="3.00" arrival="176.00" arrivalLane="1o_1" arrivalPos="489.60" arrivalSpeed="46.88" duration="130.00" routeLength="994.90" waitingTime="79.00" waitingCount="1" stopTime="0.00" timeLoss="111.28" rerouteNo="0" devices="tripinfo_f_0_2.2" vType="DEFAULT_VEHTYPE" speedFactor="1.01" vaporized=""/>
    <tripinfo id="f_0_0.8" depart="27.00" departLane="1i_0" departPos="5.10" departSpeed="0.00" departDelay="6.00" arrival="177.00" arrivalLane="2o_1" arrivalPos="489.60" arrivalSpeed="44.93" duration="150.00" routeLength="994.90" waitingTime="98.00" waitingCount="1" stopTime="0.00" timeLoss="131.88" rerouteNo="0" devices="tripinfo_f_0_0.8" vType="DEFAULT_VEHTYPE" speedFactor="0.94" vaporized=""/>
    <tripinfo id="f_0_2.4" depart="52.00" departLane="2i_0" departPos="5.10" departSpeed="0.00" departDelay="7.00" arrival="177.00" arrivalLane="1o_0" arrivalPos="489.60" arrivalSpeed="41.88" duration="125.00" routeLength="994.90" waitingTime="71.00" waitingCount="1" stopTime="0.00" timeLoss="106.75" rerouteNo="0" devices="tripinfo_f_0_2.4" vType="DEFAULT_VEHTYPE" speedFactor="1.18" vaporized=""/>
    <tripinfo id="f_0_2.5" depart="55.00" departLane="2i_0" departPos="5.10" departSpeed="0.00" departDelay="9.00" arrival="177.00" arrivalLane="1o_1" arrivalPos="489.60" arrivalSpeed="43.94" duration="122.00" routeLength="994.90" waitingTime="68.00" waitingCount="1" stopTime="0.00" timeLoss="103.49" rerouteNo="0" devices="tripinfo_f_0_2.5" vType="DEFAULT_VEHTYPE" speedFactor="0.90" vaporized=""/>
    <tripinfo id="f_0_0.9" depart="30.00" departLane="1i_0" departPos="5.10" departSpeed="0.00" departDelay="5.00" arrival="178.00" arrivalLane="2o_0" arrivalPos="489.60" arrivalSpeed="44.22" duration="148.00" routeLength="994.90" waitingTime="95.00" waitingCount="1" stopTime="0.00" timeLoss="129.70" rerouteNo="0" devices="tripinfo_f_0_0.9" vType="DEFAULT_VEHTYPE" speedFactor="1.03" vaporized=""/>
    <tripinfo id="f_0_0.10" depart="33.00" departLane="1i_0" departPos="5.10" departSpeed="0.00" departDelay="4.00" arrival="179.00" arrivalLane="2o_1" arrivalPos="489.60" arrivalSpeed="43.67" duration="146.00" routeLength="994.90" waitingTime="94.00" waitingCount="1" stopTime="0.00" timeLoss="126.45" rerouteNo="0" devices="tripinfo_f_0_0.10" vType="DEFAULT_VEHTYPE" speedFactor="0.88" vaporized=""/>
    <tripinfo id="f_0_2.3" depart="49.00" departLane="2i_0" departPos="5.10" departSpeed="0.00" departDelay="5.00" arrival="179.00" arrivalLane="1o_0" arrivalPos="489.60" arrivalSpeed="42.53" duration="130.00" routeLength="994.90" waitingTime="77.00" waitingCount="1" stopTime="0.00" timeLoss="111.42" rerouteNo="0" devices="tripinfo_f_0_2.3" vType="DEFAULT_VEHTYPE" speedFactor="0.99" vaporized=""/>
    <tripinfo id="f_0_2.6" depart="58.00" departLane="2i_0" departPos="5.10" departSpeed="0.00" departDelay="8.00" arrival="179.00" arrivalLane="1o_1" arrivalPos="489.60" arrivalSpeed="44.97" duration="121.00" routeLength="994.90" waitingTime="67.00" waitingCount="1" stopTime="0.00" timeLoss="102.76" rerouteNo="0" devices="tripinfo_f_0_2.6" vType="DEFAULT_VEHTYPE" speedFactor="1.04" vaporized=""/>
    <tripinfo id="f_0_0.11" depart="36.00" departLane="1i_0" departPos="5.10" departSpeed="0.00" departDelay="5.00" arrival="180.00" arrivalLane="2o_0" arrivalPos="489.60" arrivalSpeed="43.81" duration="144.00" routeLength="994.90" waitingTime="86.00" waitingCount="1" stopTime="0.00" timeLoss="125.36" rerouteNo="0" devices="tripinfo_f_0_0.11" vType="DEFAULT_VEHTYPE" speedFactor="0.94" vaporized=""/>
    <tripinfo id="f_0_2.7" depart="61.00" departLane="2i_0" departPos="5.10" departSpeed="0.00" departDelay="6.00" arrival="181.00" arrivalLane="1o_0" arrivalPos="489.60" arrivalSpeed="44.14" duration="120.00" routeLength="994.90" waitingTime="63.00" waitingCount="1" stopTime="0.00" timeLoss="101.04" rerouteNo="0" devices="tripinfo_f_0_2.7" vType="DEFAULT_VEHTYPE" speedFactor="0.90" vaporized=""/>
    <tripinfo id="f_0_0.12" depart="39.00" departLane="1i_0" departPos="5.10" departSpeed="0.00" departDelay="7.00" arrival="183.00" arrivalLane="2o_1" arrivalPos="489.60" arrivalSpeed="45.29" duration="144.00" routeLength="994.90" waitingTime="87.00" waitingCount="1" stopTime="0.00" timeLoss="125.31" rerouteNo="0" devices="tripinfo_f_0_0.12" vType="DEFAULT_VEHTYPE" speedFactor="1.02" vaporized=""/>
    <tripinfo id="f_0_0.13" depart="42.00" departLane="1i_0" departPos="5.10" departSpeed="0.00" departDelay="9.00" arrival="183.00" arrivalLane="2o_0" arrivalPos="489.60" arrivalSpeed="43.66" duration="141.00" routeLength="994.90" waitingTime="83.00" waitingCount="2" stopTime="0.00" timeLoss="122.63" rerouteNo="0" devices="tripinfo_f_0_0.13" vType="DEFAULT_VEHTYPE" speedFactor="1.01" vaporized=""/>
    <tripinfo id="f_0_2.8" depart="64.00" departLane="2i_0" departPos="5.10" departSpeed="0.00" departDelay="7.00" arrival="183.00" arrivalLane="1o_1" arrivalPos="489.60" arrivalSpeed="44.31" duration="119.00" routeLength="994.90" waitingTime="62.00" waitingCount="1" stopTime="0.00" timeLoss="98.87" rerouteNo="0" devices="tripinfo_f_0_2.8" vType="DEFAULT_VEHTYPE" speedFactor="0.85" vaporized=""/>