<?xml version="1.0" encoding="UTF-8"?>

<!-- generated on 2024-08-23 17:22:26 by Eclipse SUMO sumo Version 1.17.0
<configuration xmlns:xsi="http://www.w3.org/2001/XMLSchema-instance" xsi:noNamespaceSchemaLocation="http://sumo.dlr.de/xsd/sumoConfiguration.xsd">

    <input>
        <net-file value="project_actuated.net.xml"/>
        <route-files value="project_4.rou.xml"/>
    </input>

    <output>
        <summary-output value="control_summaries\summary_project_actuated_4.xml"/>
        <tripinfo-output value="control_summaries\tripinfos_project_actuated_4.xml"/>
    </output>

    <processing>
        <time-to-teleport value="-1"/>
    </processing>

    <traci_server>
        <remote-port value="65301"/>
    </traci_server>

</configuration>
-->

<tripinfos xmlns:xsi="http://www.w3.org/2001/XMLSchema-instance" xsi:noNamespaceSchemaLocation="http://sumo.dlr.de/xsd/tripinfo_file.xsd">
    <tripinfo id="f_0_0.0" depart="2.00" departLane="1i_0" departPos="5.10" departSpeed="0.00" departDelay="0.00" arrival="37.00" arrivalLane="2o_0" arrivalPos="489.60" arrivalSpeed="54.79" duration="35.00" routeLength="994.90" waitingTime="0.00" waitingCount="0" stopTime="0.00" timeLoss="16.97" rerouteNo="0" devices="tripinfo_f_0_0.0" vType="DEFAULT_VEHTYPE" speedFactor="1.06" vaporized=""/>
    <tripinfo id="f_0_0.1" depart="5.00" departLane="1i_0" departPos="5.10" departSpeed="0.00" departDelay="2.00" arrival="37.00" arrivalLane="2o_1" arrivalPos="489.60" arrivalSpeed="54.46" duration="32.00" routeLength="994.90" waitingTime="0.00" waitingCount="0" stopTime="0.00" timeLoss="13.72" rerouteNo="0" devices="tripinfo_f_0_0.1" vType="DEFAULT_VEHTYPE" speedFactor="0.94" vaporized=""/>
    <tripinfo id="f_0_0.2" depart="8.00" departLane="1i_0" departPos="5.10" departSpeed="0.00" departDelay="3.00" arrival="40.00" arrivalLane="2o_0" arrivalPos="489.60" arrivalSpeed="54.45" duration="32.00" routeLength="994.90" waitingTime="0.00" waitingCount="0" stopTime="0.00" timeLoss="13.21" rerouteNo="0" devices="tripinfo_f_0_0.2" vType="DEFAULT_VEHTYPE" speedFactor="1.01" vaporized=""/>
    <tripinfo id="f_0_0.3" depart="11.00" departLane="1i_0" departPos="5.10" departSpeed="0.00" departDelay="4.00" arrival="43.00" arrivalLane="2o_0" arrivalPos="489.60" arrivalSpeed="54.48" duration="32.00" routeLength="994.90" waitingTime="0.00" waitingCount="0" stopTime="0.00" timeLoss="13.37" rerouteNo="0" devices="tripinfo_f_0_0.3" vType="DEFAULT_VEHTYPE" speedFactor="1.08" vaporized=""/>
    <tripinfo id="f_0_0.4" depart="14.00" departLane="1i_0" departPos="5.10" departSpeed="0.00" departDelay="4.00" arrival="46.00" arrivalLane="2o_0" arrivalPos="489.60" arrivalSpeed="54.72" duration="32.00" routeLength="994.90" waitingTime="0.00" waitingCount="0" stopTime="0.00" timeLoss="13.65" rerouteNo="0" devices="tripinfo_f_0_0.4" vType="DEFAULT_VEHTYPE" speedFactor="1.03" vaporized=""/>
    <tripinfo id="f_0_1.0" depart="23.00" departLane="4i_0" departPos="5.10" departSpeed="0.00" departDelay="0.00" arrival="54.00" arrivalLane="3o_0" arrivalPos="489.60" arrivalSpeed="55.40" duration="31.00" routeLength="994.90" waitingTime="0.00" waitingCount="0" stopTime="0.00" timeLoss="13.09" rerouteNo="0" devices="tripinfo_f_0_1.0" vType="DEFAULT_VEHTYPE" speedFactor="1.05" vaporized=""/>
    <tripinfo id="f_0_0.6" depart="20.00" departLane="1i_0" departPos="5.10" departSpeed="0.00" departDelay="7.00" arrival="66.00" arrivalLane="2o_1" arrivalPos="489.60" arrivalSpeed="45.10" duration="46.00" routeLength="994.90" waitingTime="0.00" waitingCount="0" stopTime="0.00" timeLoss="27.83" rerouteNo="0" devices="tripinfo_f_0_0.6" vType="DEFAULT_VEHTYPE" speedFactor="1.05" vaporized=""/>
    <tripinfo id="f_0_0.8" depart="26.00" departLane="1i_0" departPos="5.10" departSpeed="0.00" departDelay="10.00" arrival="67.00" arrivalLane="2o_1" arrivalPos="489.60" arrivalSpeed="45.37" duration="41.00" routeLength="994.90" waitingTime="0.00" waitingCount="0" stopTime="0.00" timeLoss="23.07" rerouteNo="0" devices="tripinfo_f_0_0.8" vType="DEFAULT_VEHTYPE" speedFactor="0.94" vaporized=""/>
    <tripinfo id="f_0_0.5" depart="17.00" departLane="1i_0" departPos="5.10" departSpeed="0.00" departDelay="5.00" arrival="69.00" arrivalLane="2o_0" arrivalPos="489.60" arrivalSpeed="43.85" duration="52.00" routeLength="994.90" waitingTime="2.00" waitingCount="1" stopTime="0.00" timeLoss="31.65" rerouteNo="0" devices="tripinfo_f_0_0.5" vType="DEFAULT_VEHTYPE" speedFactor="0.83" vaporized=""/>
    <tripinfo id="f_0_0.9" depart="29.00" departLane="1i_0" departPos="5.10" departSpeed="0.00" departDelay="11.00" arrival="69.00" arrivalLane="2o_1" arrivalPos="489.60" arrivalSpeed="46.26" duration="40.00" routeLength="994.90" waitingTime="0.00" waitingCount="0" stopTime="0.00" timeLoss="20.09" rerouteNo="0" devices="tripinfo_f_0_0.9" vType="DEFAULT_VEHTYPE" speedFactor="0.86" vaporized=""/>
    <tripinfo id="f_0_0.7" depart="23.00" departLane="1i_0" departPos="5.10" departSpeed="0.00" departDelay="8.00" arrival="70.00" arrivalLane="2o_0" arrivalPos="489.60" arrivalSpeed="43.73" duration="47.00" routeLength="994.90" waitingTime="0.00" waitingCount="0" stopTime="0.00" timeLoss="28.20" rerouteNo="0" devices="tripinfo_f_0_0.7" vType="DEFAULT_VEHTYPE" speedFactor="0.89" vaporized=""/>
    <tripinfo id="f_0_0.10" depart="32.00" departLane="1i_0" departPos="5.10" departSpeed="0.00" departDelay="12.00" arrival="70.00" arrivalLane="2o_1" arrivalPos="489.60" arrivalSpeed="46.12" duration="38.00" routeLength="994.90" waitingTime="0.00" waitingCount="0" stopTime="0.00" timeLoss="19.91" rerouteNo="0" devices="tripinfo_f_0_0.10" vType="DEFAULT_VEHTYPE" speedFactor="1.09" vaporized=""/>
    <tripinfo id="f_0_0.11" depart="35.00" departLane="1i_0" departPos="5.10" departSpeed="0.00" departDelay="14.00" arrival="72.00" arrivalLane="2o_0" arrivalPos="489.60" arrivalSpeed="46.45" duration="37.00" routeLength="994.90" waitingTime="0.00" waitingCount="0" stopTime="0.00" timeLoss="18.63" rerouteNo="0" devices="tripinfo_f_0_0.11" vType="DEFAULT_VEHTYPE" speedFactor="1.03" vaporized=""/>
    <tripinfo id="f_0_0.12" depart="38.00" departLane="1i_0" departPos="5.10" departSpeed="0.00" departDelay="13.00" arrival="72.00" arrivalLane="2o_1" arrivalPos="489.60" arrivalSpeed="50.68" duration="34.00" routeLength="994.90" waitingTime="0.00" waitingCount="0" stopTime="0.00" timeLoss="15.78" rerouteNo="0" devices="tripinfo_f_0_0.12" vType="DEFAULT_VEHTYPE" speedFactor="0.99" vaporized=""/>
    <tripinfo id="f_0_2.0" depart="40.00" departLane="2i_0" departPos="5.10" departSpeed="0.00" departDelay="0.00" arrival="72.00" arrivalLane="1o_0" arrivalPos="489.60" arrivalSpeed="54.55" duration="32.00" routeLength="994.90" waitingTime="0.00" waitingCount="0" stopTime="0.00" timeLoss="13.42" rerouteNo="0" devices="tripinfo_f_0_2.0" vType="DEFAULT_VEHTYPE" speedFactor="1.15" vaporized=""/>
    <tripinfo id="f_0_0.13" depart="41.00" departLane="1i_0" departPos="5.10" departSpeed="0.00" departDelay="12.00" arrival="74.00" arrivalLane="2o_0" arrivalPos="489.60" arrivalSpeed="53.69" duration="33.00" routeLength="994.90" waitingTime="0.00" waitingCount="0" stopTime="0.00" timeLoss="14.78" rerouteNo="0" devices="tripinfo_f_0_0.13" vType="DEFAULT_VEHTYPE" speedFactor="1.16" vaporized=""/>
    <tripinfo id="f_0_0.14" depart="44.00" departLane="1i_0" departPos="5.10" departSpeed="0.00" departDelay="14.00" arrival="76.00" arrivalLane="2o_0" arrivalPos="489.60" arrivalSpeed="54.43" duration="32.00" routeLength="994.90" waitingTime="0.00" waitingCount="0" stopTime="0.00" timeLoss="13.40" rerouteNo="0" devices="tripinfo_f_0_0.14" vType="DEFAULT_VEHTYPE" speedFactor="1.01" vaporized=""/>
    <tripinfo id="f_0_2.1" depart="43.00" departLane="2i_0" departPos="5.10" departSpeed="0.00" departDelay="1.00" arrival="76.00" arrivalLane="1o_0" arrivalPos="489.60" arrivalSpeed="54.36" duration="33.00" routeLength="994.90" waitingTime="0.00" waitingCount="0" stopTime="0.00" timeLoss="14.31" rerouteNo="0" devices="tripinfo_f_0_2.1" vType="DEFAULT_VEHTYPE" speedFactor="1.02" vaporized=""/>
    <tripinfo id="f_0_2.2" depart="46.00" departLane="2i_0" departPos="5.10" departSpeed="0.00" departDelay="3.00" arrival="77.00" arrivalLane="1o_0" arrivalPos="489.60" arrivalSpeed="54.54" duration="31.00" routeLength="994.90" waitingTime="0.00" waitingCount="0" stopTime="0.00" timeLoss="13.09" rerouteNo="0" devices="tripinfo_f_0_2.2" vType="DEFAULT_VEHTYPE" speedFactor="1.18" vaporized=""/>
    <tripinfo id="f_0_0.15" depart="47.00" departLane="1i_0" departPos="5.10" departSpeed="0.00" departDelay="16.00" arrival="79.00" arrivalLane="2o_0" arrivalPos="489.60" arrivalSpeed="55.50" duration="32.00" routeLength="994.90" waitingTime="0.00" waitingCount="0" stopTime="0.00" timeLoss="13.57" rerouteNo="0" devices="tripinfo_f_0_0.15" vType="DEFAULT_VEHTYPE" speedFactor="0.97" vaporized=""/>
    <tripinfo id="f_0_2.3" depart="49.00" departLane="2i_0" departPos="5.10" departSpeed="0.00" departDelay="5.00" arrival="82.00" arrivalLane="1o_0" arrivalPos="489.60" arrivalSpeed="53.01" duration="33.00" routeLength="994.90" waitingTime="0.00" waitingCount="0" stopTime="0.00" timeLoss="13.79" rerouteNo="0" devices="tripinfo_f_0_2.3" vType="DEFAULT_VEHTYPE" speedFactor="0.90" vaporized=""/>
    <tripinfo id="f_0_0.16" depart="50.00" departLane="1i_0" departPos="5.10" departSpeed="0.00" departDelay="18.00" arrival="83.00" arrivalLane="2o_0" arrivalPos="489.60" arrivalSpeed="48.67" duration="33.00" routeLength="994.90" waitingTime="0.00" waitingCount="0" stopTime="0.00" timeLoss="12.44" rerouteNo="0" devices="tripinfo_f_0_0.16" vType="DEFAULT_VEHTYPE" speedFactor="0.83" vaporized=""/>
    <tripinfo id="f_0_2.4" depart="52.00" departLane="2i_0" departPos="5.10" departSpeed="0.00" departDelay="7.00" arrival="84.00" arrivalLane="1o_0" arrivalPos="489.60" arrivalSpeed="54.94" duration="32.00" routeLength="994.90" waitingTime="0.00" waitingCount="0" stopTime="0.00" timeLoss="13.74" rerouteNo="0" devices="tripinfo_f_0_2.4" vType="DEFAULT_VEHTYPE" speedFactor="1.09" vaporized=""/>
    <tripinfo id="f_0_0.17" depart="53.00" departLane="1i_0" departPos="5.10" departSpeed="0.00" departDelay="20.00" arrival="86.00" arrivalLane="2o_0" arrivalPos="489.60" arrivalSpeed="51.27" duration="33.00" routeLength="994.90" waitingTime="0.00" waitingCount="0" stopTime="0.00" timeLoss="13.15" rerouteNo="0" devices="tripinfo_f_0_0.17" vType="DEFAULT_VEHTYPE" speedFactor="0.87" vaporized=""/>
    <tripinfo id="f_0_2.5" depart="55.00" departLane="2i_0" departPos="5.10" departSpeed="0.00" departDelay="9.00" arrival="87.00" arrivalLane="1o_0" arrivalPos="489.60" arrivalSpeed="55.15" duration="32.00" routeLength="994.90" waitingTime="0.00" waitingCount="0" stopTime="0.00" timeLoss="13.34" rerouteNo="0" devices="tripinfo_f_0_2.5" vType="DEFAULT_VEHTYPE" speedFactor="1.04" vaporized=""/>
    <tripinfo id="f_0_0.18" depart="56.00" departLane="1i_0" departPos="5.10" departSpeed="0.00" departDelay="22.00" arrival="89.00" arrivalLane="2o_0" arrivalPos="489.60" arrivalSpeed="54.58" duration="33.00" routeLength="994.90" waitingTime="0.00" waitingCount="0" stopTime="0.00" timeLoss="14.02" rerouteNo="0" devices="tripinfo_f_0_0.18" vType="DEFAULT_VEHTYPE" speedFactor="0.92" vaporized=""/>
    <tripinfo id="f_0_2.6" depart="58.00" departLane="2i_0" departPos="5.10" departSpeed="0.00" departDelay="11.00" arrival="90.00" arrivalLane="1o_0" arrivalPos="489.60" arrivalSpeed="55.18" duration="32.00" routeLength="994.90" waitingTime="0.00" waitingCount="0" stopTime="0.00" timeLoss="13.35" rerouteNo="0" devices="tripinfo_f_0_2.6" vType="DEFAULT_VEHTYPE" speedFactor="1.00" vaporized=""/>
    <tripinfo id="f_0_0.19" depart="59.00" departLane="1i_0" departPos="5.10" departSpeed="0.00" departDelay="21.00" arrival="91.00" arrivalLane="2o_0" arrivalPos="489.60" arrivalSpeed="55.10" duration="32.00" routeLength="994.90" waitingTime="0.00" waitingCount="0" stopTime="0.00" timeLoss="13.77" rerouteNo="0" devices="tripinfo_f_0_0.19" vType="DEFAULT_VEHTYPE" speedFactor="1.13" vaporized=""/>
    <tripinfo id="f_0_0.20" depart="62.00" departLane="1i_0" departPos="5.10" departSpeed="0.00" departDelay="23.00" arrival="94.00" arrivalLane="2o_0" arrivalPos="489.60" arrivalSpeed="55.44" duration="32.00" routeLength="994.90" waitingTime="0.00" waitingCount="0" stopTime="0.00" timeLoss="13.66" rerouteNo="0" devices="tripinfo_f_0_0.20" vType="DEFAULT_VEHTYPE" speedFactor="0.93" vaporized=""/>
    <tripinfo id="f_0_2.7" depart="61.00" departLane="2i_0" departPos="5.10" departSpeed="0.00" departDelay="12.00" arrival="95.00" arrivalLane="1o_0" arrivalPos="489.60" arrivalSpeed="52.11" duration="34.00" routeLength="994.90" waitingTime="0.00" waitingCount="0" stopTime="0.00" timeLoss="14.26" rerouteNo="0" devices="tripinfo_f_0_2.7" vType="DEFAULT_VEHTYPE" speedFactor="0.88" vaporized=""/>
    <tripinfo id="f_0_2.8" depart="64.00" departLane="2i_0" departPos="5.10" departSpeed="0.00" departDelay="14.00" arrival="96.00" arrivalLane="1o_0" arrivalPos="489.60" arrivalSpeed="50.80" duration="32.00" routeLength="994.90" waitingTime="0.00" waitingCount="0" stopTime="0.00" timeLoss="12.33" rerouteNo="0" devices="tripinfo_f_0_2.8" vType="DEFAULT_VEHTYPE" speedFactor="0.85" vaporized=""/>
    <tripinfo id="f_0_0.21" depart="65.00" departLane="1i_0" departPos="5.10" departSpeed="0.00" departDelay="25.00" arrival="98.00" arrivalLane="2o_0" arrivalPos="489.60" arrivalSpeed="55.38" duration="33.00" routeLength="994.90" waitingTime="0.00" waitingCount="0" stopTime="0.00" timeLoss="14.54" rerouteNo="0" devices="tripinfo_f_0_0.21" vType="DEFAULT_VEHTYPE" speedFactor="1.18" vaporized=""/>
    <tripinfo id="f_0_0.22" depart="68.00" departLane="1i_0" departPos="5.10" departSpeed="0.00" departDelay="27.00" arrival="100.00" arrivalLane="2o_0" arrivalPos="489.60" arrivalSpeed="54.30" duration="32.00" routeLength="994.90" waitingTime="0.00" waitingCount="0" stopTime="0.00" timeLoss="13.71" rerouteNo="0" devices="tripinfo_f_0_0.22" vType="DEFAULT_VEHTYPE" speedFactor="1.01" vaporized=""/>
    <tripinfo id="f_0_2.9" depart="67.00" departLane="2i_0" departPos="5.10" departSpeed="0.00" departDelay="15.00" arrival="100.00" arrivalLane="1o_0" arrivalPos="489.60" arrivalSpeed="55.05" duration="33.00" routeLength="994.90" waitingTime="0.00" waitingCount="0" stopTime="0.00" timeLoss="14.26" rerouteNo="0" devices="tripinfo_f_0_2.9" vType="DEFAULT_VEHTYPE" speedFactor="1.10" vaporized=""/>
    <tripinfo id="f_0_0.23" depart="71.00" departLane="1i_0" departPos="5.10" departSpeed="0.00" departDelay="27.00" arrival="103.00" arrivalLane="2o_0" arrivalPos="489.60" arrivalSpeed="54.88" duration="32.00" routeLength="994.90" waitingTime="0.00" waitingCount="0" stopTime="0.00" timeLoss="13.87" rerouteNo="0" devices="tripinfo_f_0_0.23" vType="DEFAULT_VEHTYPE" speedFactor="1.10" vaporized=""/>
    <tripinfo id="f_0_2.10" depart="70.00" departLane="2i_0" departPos="5.10" departSpeed="0.00" departDelay="17.00" arrival="103.00" arrivalLane="1o_0" arrivalPos="489.60" arrivalSpeed="54.69" duration="33.00" routeLength="994.90" waitingTime="0.00" waitingCount="0" stopTime="0.00" timeLoss="14.13" rerouteNo="0" devices="tripinfo_f_0_2.10" vType="DEFAULT_VEHTYPE" speedFactor="1.00" vaporized=""/>
    <tripinfo id="f_0_0.24" depart="74.00" departLane="1i_0" departPos="5.10" departSpeed="0.00" departDelay="29.00" arrival="105.00" arrivalLane="2o_0" arrivalPos="489.60" arrivalSpeed="54.35" duration="31.00" routeLength="994.90" waitingTime="0.00" waitingCount="0" stopTime="0.00" timeLoss="12.27" rerouteNo="0" devices="tripinfo_f_0_0.24" vType="DEFAULT_VEHTYPE" speedFactor="1.03" vaporized=""/>
    <tripinfo id="f_0_2.11" depart="73.00" departLane="2i_0" departPos="5.10" departSpeed="0.00" departDelay="18.00" arrival="105.00" arrivalLane="1o_0" arrivalPos="489.60" arrivalSpeed="54.52" duration="32.00" routeLength="994.90" waitingTime="0.00" waitingCount="0" stopTime="0.00" timeLoss="13.71" rerouteNo="0" devices="tripinfo_f_0_2.11" vType="DEFAULT_VEHTYPE" speedFactor="1.02" vaporized=""/>
    <tripinfo id="f_0_0.25" depart="77.00" departLane="1i_0" departPos="5.10" departSpeed="0.00" departDelay="30.00" arrival="109.00" arrivalLane="2o_0" arrivalPos="489.60" arrivalSpeed="55.25" duration="32.00" routeLength="994.90" waitingTime="0.00" waitingCount="0" stopTime="0.00" timeLoss="13.16" rerouteNo="0" devices="tripinfo_f_0_0.25" vType="DEFAULT_VEHTYPE" speedFactor="1.09" vaporized=""/>
    <tripinfo id="f_0_2.12" depart="76.00" departLane="2i_0" departPos="5.10" departSpeed="0.00" departDelay="20.00" arrival="109.00" arrivalLane="1o_0" arrivalPos="489.60" arrivalSpeed="55.25" duration="33.00" routeLength="994.90" waitingTime="0.00" waitingCount="0" stopTime="0.00" timeLoss="14.17" rerouteNo="0" devices="tripinfo_f_0_2.12" vType="DEFAULT_VEHTYPE" speedFactor="1.08" vaporized=""/>
    <tripinfo id="f_0_3.0" depart="80.00" departLane="3i_0" departPos="5.10" departSpeed="0.00" departDelay="0.00" arrival="113.00" arrivalLane="4o_0" arrivalPos="489.60" arrivalSpeed="54.36" duration="33.00" routeLength="994.90" waitingTime="0.00" waitingCount="0" stopTime="0.00" timeLoss="14.07" rerouteNo="0" devices="tripinfo_f_0_3.0" vType="DEFAULT_VEHTYPE" speedFactor="0.91" vaporized=""/>
    <tripinfo id="f_0_3.1" depart="83.00" departLane="3i_0" departPos="5.10" departSpeed="0.00" departDelay="2.00" arrival="114.00" arrivalLane="4o_1" arrivalPos="489.60" arrivalSpeed="54.79" duration="31.00" routeLength="994.90" waitingTime="0.00" waitingCount="0" stopTime="0.00" timeLoss="12.65" rerouteNo="0" devices="tripinfo_f_0_3.1" vType="DEFAULT_VEHTYPE" speedFactor="0.96" vaporized=""/>
    <tripinfo id="f_0_3.2" depart="86.00" departLane="3i_0" departPos="5.10" departSpeed="0.00" departDelay="1.00" arrival="118.00" arrivalLane="4o_0" arrivalPos="489.60" arrivalSpeed="54.30" duration="32.00" routeLength="994.90" waitingTime="0.00" waitingCount="0" stopTime="0.00" timeLoss="13.98" rerouteNo="0" devices="tripinfo_f_0_3.2" vType="DEFAULT_VEHTYPE" speedFactor="0.93" vaporized=""/>
    <tripinfo id="f_0_1.2" depart="29.00" departLane="4i_0" departPos="5.10" departSpeed="0.00" departDelay="4.00" arrival="121.00" arrivalLane="3o_1" arrivalPos="489.60" arrivalSpeed="44.88" duration="92.00" routeLength="994.90" waitingTime="43.00" waitingCount="1" stopTime="0.00" timeLoss="73.83" rerouteNo="0" devices="tripinfo_f_0_1.2" vType="DEFAULT_VEHTYPE" speedFactor="0.93" vaporized=""/>
    <tripinfo id="f_0_3.3" depart="89.00" departLane="3i_0" departPos="5.10" departSpeed="0.00" departDelay="3.00" arrival="121.00" arrivalLane="4o_0" arrivalPos="489.60" arrivalSpeed="51.16" duration="32.00" routeLength="994.90" waitingTime="0.00" waitingCount="0" stopTime="0.00" timeLoss="12.50" rerouteNo="0" devices="tripinfo_f_0_3.3" vType="DEFAULT_VEHTYPE" speedFactor="0.87" vaporized=""/>
    <tripinfo id="f_0_1.1" depart="26.00" departLane="4i_0" departPos="5.10" departSpeed="0.00" departDelay="2.00" arrival="122.00" arrivalLane="3o_0" arrivalPos="489.60" arrivalSpeed="45.54" duration="96.00" routeLength="994.90" waitingTime="46.00" waitingCount="1" stopTime="0.00" timeLoss="77.80" rerouteNo="0" devices="tripinfo_f_0_1.1" vType="DEFAULT_VEHTYPE" speedFactor="1.12" vaporized=""/>
    <tripinfo id="f_0_1.3" depart="32.00" departLane="4i_0" departPos="5.10" departSpeed="0.00" departDelay="6.00" arrival="124.00" arrivalLane="3o_1" arrivalPos="489.60" arrivalSpeed="44.08" duration="92.00" routeLength="994.90" waitingTime="40.00" waitingCount="1" stopTime="0.00" timeLoss="72.46" rerouteNo="0" devices="tripinfo_f_0_1.3" vType="DEFAULT_VEHTYPE" speedFactor="0.88" vaporized=""/>
    <tripinfo id="f_0_3.4" depart="92.00" departLane="3i_0" departPos="5.10" departSpeed="0.00" departDelay="5.00" arrival="124.00" arrivalLane="4o_0" arrivalPos="489.60" arrivalSpeed="54.89" duration="32.00" routeLength="994.90" waitingTime="0.00" waitingCount="0" stopTime="0.00" timeLoss="13.66" rerouteNo="0" devices="tripinfo_f_0_3.4" vType="DEFAULT_VEHTYPE" speedFactor="1.10" vaporized=""/>
    <tripinfo id="f_0_1.4" depart="35.00" departLane="4i_0" departPos="5.10" departSpeed="0.00" departDelay="8.00" arrival="125.00" arrivalLane="3o_0" arrivalPos="489.60" arrivalSpeed="43.52" duration="90.00" routeLength="994.90" waitingTime="34.00" waitingCount="1" stopTime="0.00" timeLoss="71.60" rerouteNo="0" devices="tripinfo_f_0_1.4" vType="DEFAULT_VEHTYPE" speedFactor="0.94" vaporized=""/>
    <tripinfo id="f_0_1.5" depart="38.00" departLane="4i_0" departPos="5.10" departSpeed="0.00" departDelay="10.00" arrival="125.00" arrivalLane="3o_1" arrivalPos="489.60" arrivalSpeed="43.87" duration="87.00" routeLength="994.90" waitingTime="36.00" waitingCount="1" stopTime="0.00" timeLoss="68.75" rerouteNo="0" devices="tripinfo_f_0_1.5" vType="DEFAULT_VEHTYPE" speedFactor="0.94" vaporized=""/>
    <tripinfo id="f_0_1.7" depart="44.00" departLane="4i_0" departPos="5.10" departSpeed="0.00" departDelay="13.00" arrival="126.00" arrivalLane="3o_0" arrivalPos="489.60" arrivalSpeed="44.43" duration="82.00" routeLength="994.90" waitingTime="29.00" waitingCount="1" stopTime="0.00" timeLoss="63.10" rerouteNo="0" devices="tripinfo_f_0_1.7" vType="DEFAULT_VEHTYPE" speedFactor="0.89" vaporized=""/>
    <tripinfo id="f_0_1.6" depart="41.00" departLane="4i_0" departPos="5.10" departSpeed="0.00" departDelay="12.00" arrival="127.00" arrivalLane="3o_1" arrivalPos="489.60" arrivalSpeed="44.10" duration="86.00" routeLength="994.90" waitingTime="33.00" waitingCount="1" stopTime="0.00" timeLoss="67.37" rerouteNo="0" devices="tripinfo_f_0_1.6" vType="DEFAULT_VEHTYPE" speedFactor="1.02" vaporized=""/>
    <tripinfo id="f_0_3.5" depart="95.00" departLane="3i_0" departPos="5.10" departSpeed="0.00" departDelay="6.00" arrival="127.00" arrivalLane="4o_0" arrivalPos="489.60" arrivalSpeed="54.97" duration="32.00" routeLength="994.90" waitingTime="0.00" waitingCount="0" stopTime="0.00" timeLoss="13.44" rerouteNo="0" devices="tripinfo_f_0_3.5" vType="DEFAULT_VEHTYPE" speedFactor="0.99" vaporized=""/>
    <tripinfo id="f_0_1.8" depart="47.00" departLane="4i_0" departPos="5.10" departSpeed="0.00" departDelay="10.00" arrival="128.00" arrivalLane="3o_0" arrivalPos="489.60" arrivalSpeed="45.64" duration="81.00" routeLength="994.90" waitingTime="26.00" waitingCount="2" stopTime="0.00" timeLoss="62.31" rerouteNo="0" devices="tripinfo_f_0_1.8" vType="DEFAULT_VEHTYPE" speedFactor="0.95" vaporized=""/>
    <tripinfo id="f_0_1.9" depart="50.00" departLane="4i_0" departPos="5.10" departSpeed="0.00" departDelay="9.00" arrival="128.00" arrivalLane="3o_1" arrivalPos="489.60" arrivalSpeed="43.83" duration="78.00" routeLength="994.90" waitingTime="24.00" waitingCount="1" stopTime="0.00" timeLoss="59.60" rerouteNo="0" devices="tripinfo_f_0_1.9" vType="DEFAULT_VEHTYPE" speedFactor="1.17" vaporized=""/>
    <tripinfo id="f_0_1.10" depart="53.00" departLane="4i_0" departPos="5.10" departSpeed="0.00" departDelay="11.00" arrival="129.00" arrivalLane="3o_1" arrivalPos="489.60" arrivalSpeed="44.61" duration="76.00" routeLength="994.90" waitingTime="23.00" waitingCount="1" stopTime="0.00" timeLoss="57.82" rerouteNo="0" devices="tripinfo_f_0_1.10" vType="DEFAULT_VEHTYPE" speedFactor="0.99" vaporized=""/>
    <tripinfo id="f_0_1.11" depart="56.00" departLane="4i_0" departPos="5.10" departSpeed="0.00" departDelay="13.00" arrival="129.00" arrivalLane="3o_0" arrivalPos="489.60" arrivalSpeed="45.00" duration="73.00" routeLength="994.90" waitingTime="20.00" waitingCount="1" stopTime="0.00" timeLoss="54.59" rerouteNo="0" devices="tripinfo_f_0_1.11" vType="DEFAULT_VEHTYPE" speedFactor="0.97" vaporized=""/>
    <tripinfo id="f_0_3.6" depart="98.00" departLane="3i_0" departPos="5.10" departSpeed="0.00" departDelay="8.00" arrival="130.00" arrivalLane="4o_0" arrivalPos="489.60" arrivalSpeed="55.53" duration="32.00" routeLength="994.90" waitingTime="0.00" waitingCount="0" stopTime="0.00" timeLoss="13.25" rerouteNo="0" devices="tripinfo_f_0_3.6" vType="DEFAULT_VEHTYPE" speedFactor="0.94" vaporized=""/>
    <tripinfo id="f_0_1.12" depart="59.00" departLane="4i_0" departPos="5.10" departSpeed="0.00" departDelay="14.00" arrival="131.00" arrivalLane="3o_1" arrivalPos="489.60" arrivalSpeed="46.69" duration="72.00" routeLength="994.90" waitingTime="21.00" waitingCount="1" stopTime="0.00" timeLoss="53.26" rerouteNo="0" devices="tripinfo_f_0_1.12" vType="DEFAULT_VEHTYPE" speedFactor="0.96" vaporized=""/>
    <tripinfo id="f_0_1.13" depart="62.00" departLane="4i_0" departPos="5.10" departSpeed="0.00" departDelay="16.00" arrival="131.00" arrivalLane="3o_0" arrivalPos="489.60" arrivalSpeed="44.67" duration="69.00" routeLength="994.90" waitingTime="14.00" waitingCount="1" stopTime="0.00" timeLoss="50.50" rerouteNo="0" devices="tripinfo_f_0_1.13" vType="DEFAULT_VEHTYPE" speedFactor="1.04" vaporized=""/>
    <tripinfo id="f_0_1.14" depart="65.00" departLane="4i_0" departPos="5.10" departSpeed="0.00" departDelay="17.00" arrival="132.00" arrivalLane="3o_0" arrivalPos="489.60" arrivalSpeed="44.52" duration="67.00" routeLength="994.90" waitingTime="11.00" waitingCount="1" stopTime="0.00" timeLoss="48.22" rerouteNo="0" devices="tripinfo_f_0_1.14" vType="DEFAULT_VEHTYPE" speedFactor="0.90" vaporized=""/>
    <tripinfo id="f_0_1.15" depart="68.00" departLane="4i_0" departPos="5.10" departSpeed="0.00" departDelay="17.00" arrival="132.00" arrivalLane="3o_1" arrivalPos="489.60" arrivalSpeed="45.79" duration="64.00" routeLength="994.90" waitingTime="10.00" waitingCount="1" stopTime="0.00" timeLoss="45.51" rerouteNo="0" devices="tripinfo_f_0_1.15" vType="DEFAULT_VEHTYPE" speedFactor="1.02" vaporized=""/>
    <tripinfo id="f_0_1.16" depart="71.00" departLane="4i_0" departPos="5.10" departSpeed="0.00" departDelay="16.00" arrival="133.00" arrivalLane="3o_0" arrivalPos="489.60" arrivalSpeed="44.27" duration="62.00" routeLength="994.90" waitingTime="6.00" waitingCount="1" stopTime="0.00" timeLoss="44.07" rerouteNo="0" devices="tripinfo_f_0_1.16" vType="DEFAULT_VEHTYPE" speedFactor="1.14" vaporized=""/>
    <tripinfo id="f_0_1.17" depart="74.00" departLane="4i_0" departPos="5.10" departSpeed="0.00" departDelay="18.00" arrival="133.00" arrivalLane="3o_1" arrivalPos="489.60" arrivalSpeed="44.27" duration="59.00" routeLength="994.90" waitingTime="5.00" waitingCount="1" stopTime="0.00" timeLoss="40.82" rerouteNo="0" devices="tripinfo_f_0_1.17" vType="DEFAULT_VEHTYPE" speedFactor="0.97" vaporized=""/>
    <tripinfo id="f_0_3.7" depart="101.00" departLane="3i_0" departPos="5.10" departSpeed="0.00" departDelay="10.00" arrival="134.00" arrivalLane="4o_0" arrivalPos="489.60" arrivalSpeed="54.49" duration="33.00" routeLength="994.90" waitingTime="0.00" waitingCount="0" stopTime="0.00" timeLoss="14.79" rerouteNo="0" devices="tripinfo_f_0_3.7" vType="DEFAULT_VEHTYPE" speedFactor="1.10" vaporized=""/>
    <tripinfo id="f_0_1.18" depart="77.00" departLane="4i_0" departPos="5.10" departSpeed="0.00" departDelay="19.00" arrival="135.00" arrivalLane="3o_0" arrivalPos="489.60" arrivalSpeed="46.84" duration="58.00" routeLength="994.90" waitingTime="4.00" waitingCount="1" stopTime="0.00" timeLoss="39.60" rerouteNo="0" devices="tripinfo_f_0_1.18" vType="DEFAULT_VEHTYPE" speedFactor="1.02" vaporized=""/>
    <tripinfo id="f_0_1.19" depart="80.00" departLane="4i_0" departPos="5.10" departSpeed="0.00" departDelay="20.00" arrival="135.00" arrivalLane="3o_1" arrivalPos="489.60" arrivalSpeed="47.17" duration="55.00" routeLength="994.90" waitingTime="2.00" waitingCount="1" stopTime="0.00" timeLoss="36.42" rerouteNo="0" devices="tripinfo_f_0_1.19" vType="DEFAULT_VEHTYPE" speedFactor="0.91" vaporized=""/>
    <tripinfo id="f_0_1.21" depart="85.00" departLane="4i_0" departPos="5.10" departSpeed="0.00" departDelay="21.00" arrival="136.00" arrivalLane="3o_1" arrivalPos="489.60" arrivalSpeed="47.11" duration="51.00" routeLength="994.90" waitingTime="0.00" waitingCount="0" stopTime="0.00" timeLoss="33.08" rerouteNo="0" devices="tripinfo_f_0_1.21" vType="DEFAULT_VEHTYPE" speedFactor="0.94" vaporized=""/>
    <tripinfo id="f_0_3.8" depart="104.00" departLane="3i_0" departPos="5.10" departSpeed="0.00" departDelay="12.00" arrival="136.00" arrivalLane="4o_0" arrivalPos="489.60" arrivalSpeed="54.65" duration="32.00" routeLength="994.90" waitingTime="0.00" waitingCount="0" stopTime="0.00" timeLoss="13.27" rerouteNo="0" devices="tripinfo_f_0_3.8" vType="DEFAULT_VEHTYPE" speedFactor="1.06" vaporized=""/>
    <tripinfo id="f_0_1.20" depart="83.00" departLane="4i_0" departPos="5.10" departSpeed="0.00" departDelay="20.00" arrival="137.00" arrivalLane="3o_0" arrivalPos="489.60" arrivalSpeed="46.87" duration="54.00" routeLength="994.90" waitingTime="1.00" waitingCount="1" stopTime="0.00" timeLoss="35.27" rerouteNo="0" devices="tripinfo_f_0_1.20" vType="DEFAULT_VEHTYPE" speedFactor="1.02" vaporized=""/>
    <tripinfo id="f_0_1.22" depart="89.00" departLane="4i_0" departPos="5.10" departSpeed="0.00" departDelay="20.00" arrival="138.00" arrivalLane="3o_1" arrivalPos="489.60" arrivalSpeed="47.85" duration="49.00" routeLength="994.90" waitingTime="0.00" waitingCount="0" stopTime="0.00" timeLoss="30.56" rerouteNo="0" devices="tripinfo_f_0_1.22" vType="DEFAULT_VEHTYPE" speedFactor="1.03" vaporized=""/>
    <tripinfo id="f_0_1.23" depart="92.00" departLane="4i_0" departPos="5.10" departSpeed="0.00" departDelay="22.00" arrival="138.00" arrivalLane="3o_0" arrivalPos="489.60" arrivalSpeed="45.91" duration="46.00" routeLength="994.90" waitingTime="0.00" waitingCount="0" stopTime="0.00" timeLoss="27.53" rerouteNo="0" devices="tripinfo_f_0_1.23" vType="DEFAULT_VEHTYPE" speedFactor="1.01" vaporized=""/>