<?xml version="1.0" encoding="UTF-8"?>

<!-- generated on 2024-08-23 17:22:00 by Eclipse SUMO sumo Version 1.17.0
<configuration xmlns:xsi="http://www.w3.org/2001/XMLSchema-instance" xsi:noNamespaceSchemaLocation="http://sumo.dlr.de/xsd/sumoConfiguration.xsd">

    <input>
        <net-file value="project_no_lights.net.xml"/>
        <route-files value="project_5.rou.xml"/>
    </input>

    <output>
        <summary-output value="control_summaries\summary_project_no_lights_5.xml"/>
        <tripinfo-output value="control_summaries\tripinfos_project_no_lights_5.xml"/>
    </output>

    <processing>
        <time-to-teleport value="-1"/>
    </processing>

    <traci_server>
        <remote-port value="65268"/>
    </traci_server>

</configuration>
-->

<tripinfos xmlns:xsi="http://www.w3.org/2001/XMLSchema-instance" xsi:noNamespaceSchemaLocation="http://sumo.dlr.de/xsd/tripinfo_file.xsd">
    <tripinfo id="f_0_0.0" depart="2.00" departLane="1i_0" departPos="5.10" departSpeed="0.00" departDelay="0.00" arrival="48.00" arrivalLane="2o_0" arrivalPos="489.60" arrivalSpeed="44.60" duration="46.00" routeLength="994.90" waitingTime="0.00" waitingCount="0" stopTime="0.00" timeLoss="28.06" rerouteNo="0" devices="tripinfo_f_0_0.0" vType="DEFAULT_VEHTYPE" speedFactor="1.06" vaporized=""/>
    <tripinfo id="f_0_0.1" depart="5.00" departLane="1i_0" departPos="5.10" departSpeed="0.00" departDelay="0.00" arrival="50.00" arrivalLane="2o_1" arrivalPos="489.60" arrivalSpeed="45.19" duration="45.00" routeLength="994.90" waitingTime="0.00" waitingCount="0" stopTime="0.00" timeLoss="26.75" rerouteNo="0" devices="tripinfo_f_0_0.1" vType="DEFAULT_VEHTYPE" speedFactor="0.94" vaporized=""/>
    <tripinfo id="f_0_0.2" depart="8.00" departLane="1i_0" departPos="5.10" departSpeed="0.00" departDelay="1.00" arrival="53.00" arrivalLane="2o_1" arrivalPos="489.60" arrivalSpeed="45.94" duration="45.00" routeLength="994.90" waitingTime="0.00" waitingCount="0" stopTime="0.00" timeLoss="26.82" rerouteNo="0" devices="tripinfo_f_0_0.2" vType="DEFAULT_VEHTYPE" speedFactor="1.01" vaporized=""/>
    <tripinfo id="f_0_0.3" depart="11.00" departLane="1i_0" departPos="5.10" departSpeed="0.00" departDelay="1.00" arrival="59.00" arrivalLane="2o_1" arrivalPos="489.60" arrivalSpeed="44.39" duration="48.00" routeLength="994.90" waitingTime="0.00" waitingCount="0" stopTime="0.00" timeLoss="29.32" rerouteNo="0" devices="tripinfo_f_0_0.3" vType="DEFAULT_VEHTYPE" speedFactor="1.08" vaporized=""/>
    <tripinfo id="f_0_0.4" depart="15.00" departLane="1i_0" departPos="5.10" departSpeed="0.00" departDelay="0.00" arrival="62.00" arrivalLane="2o_1" arrivalPos="489.60" arrivalSpeed="46.86" duration="47.00" routeLength="994.90" waitingTime="0.00" waitingCount="0" stopTime="0.00" timeLoss="28.29" rerouteNo="0" devices="tripinfo_f_0_0.4" vType="DEFAULT_VEHTYPE" speedFactor="1.03" vaporized=""/>
    <tripinfo id="f_0_0.5" depart="18.00" departLane="1i_0" departPos="5.10" departSpeed="0.00" departDelay="2.00" arrival="64.00" arrivalLane="2o_1" arrivalPos="489.60" arrivalSpeed="46.75" duration="46.00" routeLength="994.90" waitingTime="0.00" waitingCount="0" stopTime="0.00" timeLoss="26.03" rerouteNo="0" devices="tripinfo_f_0_0.5" vType="DEFAULT_VEHTYPE" speedFactor="0.83" vaporized=""/>
    <tripinfo id="f_0_0.6" depart="21.00" departLane="1i_0" departPos="5.10" departSpeed="0.00" departDelay="3.00" arrival="68.00" arrivalLane="2o_1" arrivalPos="489.60" arrivalSpeed="45.93" duration="47.00" routeLength="994.90" waitingTime="0.00" waitingCount="0" stopTime="0.00" timeLoss="28.30" rerouteNo="0" devices="tripinfo_f_0_0.6" vType="DEFAULT_VEHTYPE" speedFactor="1.05" vaporized=""/>
    <tripinfo id="f_0_0.7" depart="24.00" departLane="1i_0" departPos="5.10" departSpeed="0.00" departDelay="4.00" arrival="70.00" arrivalLane="2o_1" arrivalPos="489.60" arrivalSpeed="45.61" duration="46.00" routeLength="994.90" waitingTime="0.00" waitingCount="0" stopTime="0.00" timeLoss="27.00" rerouteNo="0" devices="tripinfo_f_0_0.7" vType="DEFAULT_VEHTYPE" speedFactor="0.89" vaporized=""/>
    <tripinfo id="f_0_1.0" depart="40.00" departLane="4i_0" departPos="5.10" departSpeed="0.00" departDelay="0.00" arrival="74.00" arrivalLane="3o_0" arrivalPos="489.60" arrivalSpeed="55.01" duration="34.00" routeLength="994.90" waitingTime="0.00" waitingCount="0" stopTime="0.00" timeLoss="15.15" rerouteNo="0" devices="tripinfo_f_0_1.0" vType="DEFAULT_VEHTYPE" speedFactor="1.03" vaporized=""/>
    <tripinfo id="f_0_1.1" depart="43.00" departLane="4i_0" departPos="5.10" departSpeed="0.00" departDelay="2.00" arrival="75.00" arrivalLane="3o_1" arrivalPos="489.60" arrivalSpeed="55.32" duration="32.00" routeLength="994.90" waitingTime="0.00" waitingCount="0" stopTime="0.00" timeLoss="13.71" rerouteNo="0" devices="tripinfo_f_0_1.1" vType="DEFAULT_VEHTYPE" speedFactor="1.05" vaporized=""/>
    <tripinfo id="f_0_0.8" depart="27.00" departLane="1i_0" departPos="5.10" departSpeed="0.00" departDelay="5.00" arrival="76.00" arrivalLane="2o_1" arrivalPos="489.60" arrivalSpeed="44.90" duration="49.00" routeLength="994.90" waitingTime="0.00" waitingCount="0" stopTime="0.00" timeLoss="30.32" rerouteNo="0" devices="tripinfo_f_0_0.8" vType="DEFAULT_VEHTYPE" speedFactor="0.94" vaporized=""/>
    <tripinfo id="f_0_0.9" depart="30.00" departLane="1i_0" departPos="5.10" departSpeed="0.00" departDelay="3.00" arrival="77.00" arrivalLane="2o_1" arrivalPos="489.60" arrivalSpeed="45.01" duration="47.00" routeLength="994.90" waitingTime="0.00" waitingCount="0" stopTime="0.00" timeLoss="27.22" rerouteNo="0" devices="tripinfo_f_0_0.9" vType="DEFAULT_VEHTYPE" speedFactor="0.86" vaporized=""/>
    <tripinfo id="f_0_1.2" depart="46.00" departLane="4i_0" departPos="5.10" departSpeed="0.00" departDelay="3.00" arrival="78.00" arrivalLane="3o_0" arrivalPos="489.60" arrivalSpeed="55.16" duration="32.00" routeLength="994.90" waitingTime="0.00" waitingCount="0" stopTime="0.00" timeLoss="13.52" rerouteNo="0" devices="tripinfo_f_0_1.2" vType="DEFAULT_VEHTYPE" speedFactor="1.12" vaporized=""/>
    <tripinfo id="f_0_1.3" depart="49.00" departLane="4i_0" departPos="5.10" departSpeed="0.00" departDelay="4.00" arrival="81.00" arrivalLane="3o_0" arrivalPos="489.60" arrivalSpeed="54.26" duration="32.00" routeLength="994.90" waitingTime="0.00" waitingCount="0" stopTime="0.00" timeLoss="13.57" rerouteNo="0" devices="tripinfo_f_0_1.3" vType="DEFAULT_VEHTYPE" speedFactor="0.99" vaporized=""/>
    <tripinfo id="f_0_1.4" depart="52.00" departLane="4i_0" departPos="5.10" departSpeed="0.00" departDelay="5.00" arrival="83.00" arrivalLane="3o_0" arrivalPos="489.60" arrivalSpeed="55.25" duration="31.00" routeLength="994.90" waitingTime="0.00" waitingCount="0" stopTime="0.00" timeLoss="12.90" rerouteNo="0" devices="tripinfo_f_0_1.4" vType="DEFAULT_VEHTYPE" speedFactor="0.93" vaporized=""/>
    <tripinfo id="f_0_1.5" depart="55.00" departLane="4i_0" departPos="5.10" departSpeed="0.00" departDelay="7.00" arrival="87.00" arrivalLane="3o_0" arrivalPos="489.60" arrivalSpeed="52.52" duration="32.00" routeLength="994.90" waitingTime="0.00" waitingCount="0" stopTime="0.00" timeLoss="12.15" rerouteNo="0" devices="tripinfo_f_0_1.5" vType="DEFAULT_VEHTYPE" speedFactor="0.88" vaporized=""/>
    <tripinfo id="f_0_1.6" depart="58.00" departLane="4i_0" departPos="5.10" departSpeed="0.00" departDelay="9.00" arrival="90.00" arrivalLane="3o_0" arrivalPos="489.60" arrivalSpeed="54.54" duration="32.00" routeLength="994.90" waitingTime="0.00" waitingCount="0" stopTime="0.00" timeLoss="13.20" rerouteNo="0" devices="tripinfo_f_0_1.6" vType="DEFAULT_VEHTYPE" speedFactor="0.94" vaporized=""/>
    <tripinfo id="f_0_1.7" depart="61.00" departLane="4i_0" departPos="5.10" departSpeed="0.00" departDelay="11.00" arrival="94.00" arrivalLane="3o_0" arrivalPos="489.60" arrivalSpeed="54.73" duration="33.00" routeLength="994.90" waitingTime="0.00" waitingCount="0" stopTime="0.00" timeLoss="14.77" rerouteNo="0" devices="tripinfo_f_0_1.7" vType="DEFAULT_VEHTYPE" speedFactor="0.94" vaporized=""/>
    <tripinfo id="f_0_1.8" depart="64.00" departLane="4i_0" departPos="5.10" departSpeed="0.00" departDelay="12.00" arrival="96.00" arrivalLane="3o_0" arrivalPos="489.60" arrivalSpeed="55.18" duration="32.00" routeLength="994.90" waitingTime="0.00" waitingCount="0" stopTime="0.00" timeLoss="13.95" rerouteNo="0" devices="tripinfo_f_0_1.8" vType="DEFAULT_VEHTYPE" speedFactor="1.16" vaporized=""/>
    <tripinfo id="f_0_1.9" depart="67.00" departLane="4i_0" departPos="5.10" departSpeed="0.00" departDelay="14.00" arrival="100.00" arrivalLane="3o_0" arrivalPos="489.60" arrivalSpeed="55.41" duration="33.00" routeLength="994.90" waitingTime="0.00" waitingCount="0" stopTime="0.00" timeLoss="14.92" rerouteNo="0" devices="tripinfo_f_0_1.9" vType="DEFAULT_VEHTYPE" speedFactor="1.02" vaporized=""/>
    <tripinfo id="f_0_1.10" depart="70.00" departLane="4i_0" departPos="5.10" departSpeed="0.00" departDelay="16.00" arrival="103.00" arrivalLane="3o_0" arrivalPos="489.60" arrivalSpeed="54.99" duration="33.00" routeLength="994.90" waitingTime="0.00" waitingCount="0" stopTime="0.00" timeLoss="14.21" rerouteNo="0" devices="tripinfo_f_0_1.10" vType="DEFAULT_VEHTYPE" speedFactor="1.01" vaporized=""/>
    <tripinfo id="f_0_1.11" depart="73.00" departLane="4i_0" departPos="5.10" departSpeed="0.00" departDelay="17.00" arrival="106.00" arrivalLane="3o_0" arrivalPos="489.60" arrivalSpeed="55.53" duration="33.00" routeLength="994.90" waitingTime="0.00" waitingCount="0" stopTime="0.00" timeLoss="14.37" rerouteNo="0" devices="tripinfo_f_0_1.11" vType="DEFAULT_VEHTYPE" speedFactor="0.97" vaporized=""/>
    <tripinfo id="f_0_1.12" depart="76.00" departLane="4i_0" departPos="5.10" departSpeed="0.00" departDelay="18.00" arrival="109.00" arrivalLane="3o_0" arrivalPos="489.60" arrivalSpeed="52.85" duration="33.00" routeLength="994.90" waitingTime="0.00" waitingCount="0" stopTime="0.00" timeLoss="14.27" rerouteNo="0" devices="tripinfo_f_0_1.12" vType="DEFAULT_VEHTYPE" speedFactor="0.89" vaporized=""/>
    <tripinfo id="f_0_1.13" depart="79.00" departLane="4i_0" departPos="5.10" departSpeed="0.00" departDelay="14.00" arrival="112.00" arrivalLane="3o_0" arrivalPos="489.60" arrivalSpeed="48.58" duration="33.00" routeLength="994.90" waitingTime="0.00" waitingCount="0" stopTime="0.00" timeLoss="12.64" rerouteNo="0" devices="tripinfo_f_0_1.13" vType="DEFAULT_VEHTYPE" speedFactor="0.83" vaporized=""/>
    <tripinfo id="f_0_1.14" depart="82.00" departLane="4i_0" departPos="5.10" departSpeed="0.00" departDelay="14.00" arrival="115.00" arrivalLane="3o_0" arrivalPos="489.60" arrivalSpeed="51.81" duration="33.00" routeLength="994.90" waitingTime="0.00" waitingCount="0" stopTime="0.00" timeLoss="13.60" rerouteNo="0" devices="tripinfo_f_0_1.14" vType="DEFAULT_VEHTYPE" speedFactor="0.87" vaporized=""/>
    <tripinfo id="f_0_2.0" depart="80.00" departLane="2i_0" departPos="5.10" departSpeed="0.00" departDelay="0.00" arrival="126.00" arrivalLane="1o_0" arrivalPos="489.60" arrivalSpeed="42.86" duration="46.00" routeLength="994.90" waitingTime="0.00" waitingCount="0" stopTime="0.00" timeLoss="27.84" rerouteNo="0" devices="tripinfo_f_0_2.0" vType="DEFAULT_VEHTYPE" speedFactor="0.92" vaporized=""/>
    <tripinfo id="f_0_0.10" depart="33.00" departLane="1i_0" departPos="5.10" departSpeed="0.00" departDelay="4.00" arrival="129.00" arrivalLane="2o_0" arrivalPos="489.60" arrivalSpeed="44.14" duration="96.00" routeLength="994.90" waitingTime="44.00" waitingCount="1" stopTime="0.00" timeLoss="77.43" rerouteNo="0" devices="tripinfo_f_0_0.10" vType="DEFAULT_VEHTYPE" speedFactor="1.09" vaporized=""/>
    <tripinfo id="f_0_2.1" depart="83.00" departLane="2i_0" departPos="5.10" departSpeed="0.00" departDelay="1.00" arrival="130.00" arrivalLane="1o_1" arrivalPos="489.60" arrivalSpeed="45.52" duration="47.00" routeLength="994.90" waitingTime="0.00" waitingCount="0" stopTime="0.00" timeLoss="28.27" rerouteNo="0" devices="tripinfo_f_0_2.1" vType="DEFAULT_VEHTYPE" speedFactor="0.95" vaporized=""/>
    <tripinfo id="f_0_2.2" depart="86.00" departLane="2i_0" departPos="5.10" departSpeed="0.00" departDelay="3.00" arrival="132.00" arrivalLane="1o_1" arrivalPos="489.60" arrivalSpeed="46.46" duration="46.00" routeLength="994.90" waitingTime="0.00" waitingCount="0" stopTime="0.00" timeLoss="27.64" rerouteNo="0" devices="tripinfo_f_0_2.2" vType="DEFAULT_VEHTYPE" speedFactor="1.13" vaporized=""/>
    <tripinfo id="f_0_2.3" depart="89.00" departLane="2i_0" departPos="5.10" departSpeed="0.00" departDelay="5.00" arrival="135.00" arrivalLane="1o_0" arrivalPos="489.60" arrivalSpeed="43.38" duration="46.00" routeLength="994.90" waitingTime="0.00" waitingCount="0" stopTime="0.00" timeLoss="27.73" rerouteNo="0" devices="tripinfo_f_0_2.3" vType="DEFAULT_VEHTYPE" speedFactor="0.93" vaporized=""/>
    <tripinfo id="f_0_2.4" depart="92.00" departLane="2i_0" departPos="5.10" departSpeed="0.00" departDelay="5.00" arrival="138.00" arrivalLane="1o_1" arrivalPos="489.60" arrivalSpeed="46.27" duration="46.00" routeLength="994.90" waitingTime="0.00" waitingCount="0" stopTime="0.00" timeLoss="27.49" rerouteNo="0" devices="tripinfo_f_0_2.4" vType="DEFAULT_VEHTYPE" speedFactor="1.18" vaporized=""/>
    <tripinfo id="f_0_2.5" depart="95.00" departLane="2i_0" departPos="5.10" departSpeed="0.00" departDelay="7.00" arrival="141.00" arrivalLane="1o_1" arrivalPos="489.60" arrivalSpeed="46.05" duration="46.00" routeLength="994.90" waitingTime="0.00" waitingCount="0" stopTime="0.00" timeLoss="27.41" rerouteNo="0" devices="tripinfo_f_0_2.5" vType="DEFAULT_VEHTYPE" speedFactor="1.15" vaporized=""/>
    <tripinfo id="f_0_2.6" depart="98.00" departLane="2i_0" departPos="5.10" departSpeed="0.00" departDelay="8.00" arrival="145.00" arrivalLane="1o_1" arrivalPos="489.60" arrivalSpeed="44.39" duration="47.00" routeLength="994.90" waitingTime="0.00" waitingCount="0" stopTime="0.00" timeLoss="28.63" rerouteNo="0" devices="tripinfo_f_0_2.6" vType="DEFAULT_VEHTYPE" speedFactor="1.01" vaporized=""/>
    <tripinfo id="f_0_2.7" depart="101.00" departLane="2i_0" departPos="5.10" departSpeed="0.00" departDelay="10.00" arrival="149.00" arrivalLane="1o_0" arrivalPos="489.60" arrivalSpeed="42.51" duration="48.00" routeLength="994.90" waitingTime="0.00" waitingCount="0" stopTime="0.00" timeLoss="30.04" rerouteNo="0" devices="tripinfo_f_0_2.7" vType="DEFAULT_VEHTYPE" speedFactor="1.17" vaporized=""/>
    <tripinfo id="f_0_2.8" depart="104.00" departLane="2i_0" departPos="5.10" departSpeed="0.00" departDelay="12.00" arrival="152.00" arrivalLane="1o_1" arrivalPos="489.60" arrivalSpeed="45.61" duration="48.00" routeLength="994.90" waitingTime="0.00" waitingCount="0" stopTime="0.00" timeLoss="29.55" rerouteNo="0" devices="tripinfo_f_0_2.8" vType="DEFAULT_VEHTYPE" speedFactor="0.99" vaporized=""/>
    <tripinfo id="f_0_3.0" depart="120.00" departLane="3i_0" departPos="5.10" departSpeed="0.00" departDelay="0.00" arrival="152.00" arrivalLane="4o_0" arrivalPos="489.60" arrivalSpeed="54.96" duration="32.00" routeLength="994.90" waitingTime="0.00" waitingCount="0" stopTime="0.00" timeLoss="14.09" rerouteNo="0" devices="tripinfo_f_0_3.0" vType="DEFAULT_VEHTYPE" speedFactor="1.04" vaporized=""/>
    <tripinfo id="f_0_3.1" depart="123.00" departLane="3i_0" departPos="5.10" departSpeed="0.00" departDelay="1.00" arrival="154.00" arrivalLane="4o_1" arrivalPos="489.60" arrivalSpeed="54.79" duration="31.00" routeLength="994.90" waitingTime="0.00" waitingCount="0" stopTime="0.00" timeLoss="12.66" rerouteNo="0" devices="tripinfo_f_0_3.1" vType="DEFAULT_VEHTYPE" speedFactor="1.09" vaporized=""/>
    <tripinfo id="f_0_2.9" depart="107.00" departLane="2i_0" departPos="5.10" departSpeed="0.00" departDelay="13.00" arrival="155.00" arrivalLane="1o_1" arrivalPos="489.60" arrivalSpeed="47.08" duration="48.00" routeLength="994.90" waitingTime="0.00" waitingCount="0" stopTime="0.00" timeLoss="29.30" rerouteNo="0" devices="tripinfo_f_0_2.9" vType="DEFAULT_VEHTYPE" speedFactor="1.02" vaporized=""/>
    <tripinfo id="f_0_2.10" depart="110.00" departLane="2i_0" departPos="5.10" departSpeed="0.00" departDelay="15.00" arrival="156.00" arrivalLane="1o_0" arrivalPos="489.60" arrivalSpeed="45.73" duration="46.00" routeLength="994.90" waitingTime="0.00" waitingCount="0" stopTime="0.00" timeLoss="27.76" rerouteNo="0" devices="tripinfo_f_0_2.10" vType="DEFAULT_VEHTYPE" speedFactor="0.97" vaporized=""/>
    <tripinfo id="f_0_3.2" depart="126.00" departLane="3i_0" departPos="5.10" departSpeed="0.00" departDelay="3.00" arrival="158.00" arrivalLane="4o_0" arrivalPos="489.60" arrivalSpeed="54.51" duration="32.00" routeLength="994.90" waitingTime="0.00" waitingCount="0" stopTime="0.00" timeLoss="13.53" rerouteNo="0" devices="tripinfo_f_0_3.2" vType="DEFAULT_VEHTYPE" speedFactor="1.00" vaporized=""/>
    <tripinfo id="f_0_3.3" depart="129.00" departLane="3i_0" departPos="5.10" departSpeed="0.00" departDelay="5.00" arrival="161.00" arrivalLane="4o_0" arrivalPos="489.60" arrivalSpeed="52.93" duration="32.00" routeLength="994.90" waitingTime="0.00" waitingCount="0" stopTime="0.00" timeLoss="12.62" rerouteNo="0" devices="tripinfo_f_0_3.3" vType="DEFAULT_VEHTYPE" speedFactor="0.90" vaporized=""/>
    <tripinfo id="f_0_3.4" depart="135.00" departLane="3i_0" departPos="5.10" departSpeed="0.00" departDelay="0.00" arrival="169.00" arrivalLane="4o_0" arrivalPos="489.60" arrivalSpeed="52.11" duration="34.00" routeLength="994.90" waitingTime="0.00" waitingCount="0" stopTime="0.00" timeLoss="14.63" rerouteNo="0" devices="tripinfo_f_0_3.4" vType="DEFAULT_VEHTYPE" speedFactor="0.88" vaporized=""/>
    <tripinfo id="f_0_3.5" depart="138.00" departLane="3i_0" departPos="5.10" departSpeed="0.00" departDelay="2.00" arrival="171.00" arrivalLane="4o_1" arrivalPos="489.60" arrivalSpeed="50.57" duration="33.00" routeLength="994.90" waitingTime="0.00" waitingCount="0" stopTime="0.00" timeLoss="12.60" rerouteNo="0" devices="tripinfo_f_0_3.5" vType="DEFAULT_VEHTYPE" speedFactor="0.85" vaporized=""/>
    <tripinfo id="f_0_3.6" depart="141.00" departLane="3i_0" departPos="5.10" departSpeed="0.00" departDelay="4.00" arrival="173.00" arrivalLane="4o_0" arrivalPos="489.60" arrivalSpeed="50.17" duration="32.00" routeLength="994.90" waitingTime="0.00" waitingCount="0" stopTime="0.00" timeLoss="12.18" rerouteNo="0" devices="tripinfo_f_0_3.6" vType="DEFAULT_VEHTYPE" speedFactor="0.85" vaporized=""/>
    <tripinfo id="f_0_2.11" depart="113.00" departLane="2i_0" departPos="5.10" departSpeed="0.00" departDelay="17.00" arrival="174.00" arrivalLane="1o_1" arrivalPos="489.60" arrivalSpeed="42.06" duration="61.00" routeLength="994.90" waitingTime="9.00" waitingCount="1" stopTime="0.00" timeLoss="43.03" rerouteNo="0" devices="tripinfo_f_0_2.11" vType="DEFAULT_VEHTYPE" speedFactor="1.18" vaporized=""/>
    <tripinfo id="f_0_2.12" depart="116.00" departLane="2i_0" departPos="5.10" departSpeed="0.00" departDelay="19.00" arrival="174.00" arrivalLane="1o_0" arrivalPos="489.60" arrivalSpeed="42.77" duration="58.00" routeLength="994.90" waitingTime="6.00" waitingCount="1" stopTime="0.00" timeLoss="39.66" rerouteNo="0" devices="tripinfo_f_0_2.12" vType="DEFAULT_VEHTYPE" speedFactor="1.10" vaporized=""/>
    <tripinfo id="f_0_3.7" depart="144.00" departLane="3i_0" departPos="5.10" departSpeed="0.00" departDelay="5.00" arrival="177.00" arrivalLane="4o_1" arrivalPos="489.60" arrivalSpeed="55.18" duration="33.00" routeLength="994.90" waitingTime="0.00" waitingCount="0" stopTime="0.00" timeLoss="14.39" rerouteNo="0" devices="tripinfo_f_0_3.7" vType="DEFAULT_VEHTYPE" speedFactor="1.17" vaporized=""/>
    <tripinfo id="f_0_3.8" depart="147.00" departLane="3i_0" departPos="5.10" departSpeed="0.00" departDelay="4.00" arrival="180.00" arrivalLane="4o_0" arrivalPos="489.60" arrivalSpeed="54.54" duration="33.00" routeLength="994.90" waitingTime="0.00" waitingCount="0" stopTime="0.00" timeLoss="14.42" rerouteNo="0" devices="tripinfo_f_0_3.8" vType="DEFAULT_VEHTYPE" speedFactor="1.02" vaporized=""/>
    <tripinfo id="f_0_3.9" depart="150.00" departLane="3i_0" departPos="5.10" departSpeed="0.00" departDelay="5.00" arrival="181.00" arrivalLane="4o_0" arrivalPos="489.60" arrivalSpeed="54.61" duration="31.00" routeLength="994.90" waitingTime="0.00" waitingCount="0" stopTime="0.00" timeLoss="12.74" rerouteNo="0" devices="tripinfo_f_0_3.9" vType="DEFAULT_VEHTYPE" speedFactor="1.10" vaporized=""/>
    <tripinfo id="f_0_3.10" depart="153.00" departLane="3i_0" departPos="5.10" departSpeed="0.00" departDelay="6.00" arrival="186.00" arrivalLane="4o_0" arrivalPos="489.60" arrivalSpeed="54.65" duration="33.00" routeLength="994.90" waitingTime="0.00" waitingCount="0" stopTime="0.00" timeLoss="14.13" rerouteNo="0" devices="tripinfo_f_0_3.10" vType="DEFAULT_VEHTYPE" speedFactor="1.00" vaporized=""/>
    <tripinfo id="f_0_3.11" depart="156.00" departLane="3i_0" departPos="5.10" departSpeed="0.00" departDelay="7.00" arrival="188.00" arrivalLane="4o_0" arrivalPos="489.60" arrivalSpeed="54.40" duration="32.00" routeLength="994.90" waitingTime="0.00" waitingCount="0" stopTime="0.00" timeLoss="13.89" rerouteNo="0" devices="tripinfo_f_0_3.11" vType="DEFAULT_VEHTYPE" speedFactor="1.00" vaporized=""/>
    <tripinfo id="f_0_2.14" depart="122.00" departLane="2i_0" departPos="5.10" departSpeed="0.00" departDelay="22.00" arrival="201.00" arrivalLane="1o_0" arrivalPos="489.60" arrivalSpeed="43.78" duration="79.00" routeLength="994.90" waitingTime="24.00" waitingCount="2" stopTime="0.00" timeLoss="60.99" rerouteNo="0" devices="tripinfo_f_0_2.14" vType="DEFAULT_VEHTYPE" speedFactor="1.03" vaporized=""/>
    <tripinfo id="f_0_2.13" depart="119.00" departLane="2i_0" departPos="5.10" departSpeed="0.00" departDelay="20.00" arrival="202.00" arrivalLane="1o_0" arrivalPos="489.60" arrivalSpeed="39.39" duration="83.00" routeLength="994.90" waitingTime="24.00" waitingCount="2" stopTime="0.00" timeLoss="64.58" rerouteNo="0" devices="tripinfo_f_0_2.13" vType="DEFAULT_VEHTYPE" speedFactor="0.90" vaporized=""/>
    <tripinfo id="f_0_2.15" depart="125.00" departLane="2i_0" departPos="5.10" departSpeed="0.00" departDelay="24.00" arrival="203.00" arrivalLane="1o_1" arrivalPos="489.60" arrivalSpeed="45.94" duration="78.00" routeLength="994.90" waitingTime="23.00" waitingCount="2" stopTime="0.00" timeLoss="59.41" rerouteNo="0" devices="tripinfo_f_0_2.15" vType="DEFAULT_VEHTYPE" speedFactor="0.96" vaporized=""/>
    <tripinfo id="f_0_2.16" depart="128.00" departLane="2i_0" departPos="5.10" departSpeed="0.00" departDelay="23.00" arrival="204.00" arrivalLane="1o_0" arrivalPos="489.60" arrivalSpeed="42.88" duration="76.00" routeLength="994.90" waitingTime="18.00" waitingCount="1" stopTime="0.00" timeLoss="57.64" rerouteNo="0" devices="tripinfo_f_0_2.16" vType="DEFAULT_VEHTYPE" speedFactor="1.09" vaporized=""/>
    <tripinfo id="f_0_2.17" depart="131.00" departLane="2i_0" departPos="5.10" departSpeed="0.00" departDelay="22.00" arrival="204.00" arrivalLane="1o_1" arrivalPos="489.60" arrivalSpeed="45.53" duration="73.00" routeLength="994.90" waitingTime="20.00" waitingCount="1" stopTime="0.00" timeLoss="54.93" rerouteNo="0" devices="tripinfo_f_0_2.17" vType="DEFAULT_VEHTYPE" speedFactor="1.04" vaporized=""/>
    <tripinfo id="f_1_1.0" depart="200.00" departLane="4i_0" departPos="5.10" departSpeed="0.00" departDelay="0.00" arrival="232.00" arrivalLane="3o_0" arrivalPos="489.60" arrivalSpeed="53.16" duration="32.00" routeLength="994.90" waitingTime="0.00" waitingCount="0" stopTime="0.00" timeLoss="13.35" rerouteNo="0" devices="tripinfo_f_1_1.0" vType="DEFAULT_VEHTYPE" speedFactor="0.90" vaporized=""/>
    <tripinfo id="f_1_1.1" depart="204.00" departLane="4i_0" departPos="5.10" departSpeed="0.00" departDelay="0.00" arrival="236.00" arrivalLane="3o_0" arrivalPos="489.60" arrivalSpeed="54.87" duration="32.00" routeLength="994.90" waitingTime="0.00" waitingCount="0" stopTime="0.00" timeLoss="13.70" rerouteNo="0" devices="tripinfo_f_1_1.1" vType="DEFAULT_VEHTYPE" speedFactor="1.02" vaporized=""/>
    <tripinfo id="f_1_3.0" depart="205.00" departLane="3i_0" departPos="5.10" departSpeed="0.00" departDelay="0.00" arrival="237.00" arrivalLane="4o_0" arrivalPos="489.60" arrivalSpeed="54.57" duration="32.00" routeLength="994.90" waitingTime="0.00" waitingCount="0" stopTime="0.00" timeLoss="14.08" rerouteNo="0" devices="tripinfo_f_1_3.0" vType="DEFAULT_VEHTYPE" speedFactor="0.97" vaporized=""/>
    <tripinfo id="f_1_1.2" depart="208.00" departLane="4i_0" departPos="5.10" departSpeed="0.00" departDelay="0.00" arrival="240.00" arrivalLane="3o_0" arrivalPos="489.60" arrivalSpeed="54.33" duration="32.00" routeLength="994.90" waitingTime="0.00" waitingCount="0" stopTime="0.00" timeLoss="13.47" rerouteNo="0" devices="tripinfo_f_1_1.2" vType="DEFAULT_VEHTYPE" speedFactor="1.08" vaporized=""/>
    <tripinfo id="f_1_3.1" depart="212.00" departLane="3i_0" departPos="5.10" departSpeed="0.00" departDelay="0.00" arrival="244.00" arrivalLane="4o_0" arrivalPos="489.60" arrivalSpeed="55.44" duration="32.00" routeLength="994.90" waitingTime="0.00" waitingCount="0" stopTime="0.00" timeLoss="13.94" rerouteNo="0" devices="tripinfo_f_1_3.1" vType="DEFAULT_VEHTYPE" speedFactor="0.94" vaporized=""/>
    <tripinfo id="f_1_3.2" depart="215.00" departLane="3i_0" departPos="5.10" departSpeed="0.00" departDelay="1.00" arrival="247.00" arrivalLane="4o_0" arrivalPos="489.60" arrivalSpeed="54.22" duration="32.00" routeLength="994.90" waitingTime="0.00" waitingCount="0" stopTime="0.00" timeLoss="13.23" rerouteNo="0" devices="tripinfo_f_1_3.2" vType="DEFAULT_VEHTYPE" speedFactor="0.91" vaporized=""/>
    <tripinfo id="f_1_3.3" depart="218.00" departLane="3i_0" departPos="5.10" departSpeed="0.00" departDelay="3.00" arrival="250.00" arrivalLane="4o_0" arrivalPos="489.60" arrivalSpeed="53.79" duration="32.00" routeLength="994.90" waitingTime="0.00" waitingCount="0" stopTime="0.00" timeLoss="13.47" rerouteNo="0" devices="tripinfo_f_1_3.3" vType="DEFAULT_VEHTYPE" speedFactor="0.91" vaporized=""/>
    <tripinfo id="f_1_3.4" depart="221.00" departLane="3i_0" departPos="5.10" departSpeed="0.00" departDelay="5.00" arrival="253.00" arrivalLane="4o_0" arrivalPos="489.60" arrivalSpeed="54.94" duration="32.00" routeLength="994.90" waitingTime="0.00" waitingCount="0" stopTime="0.00" timeLoss="13.28" rerouteNo="0" devices="tripinfo_f_1_3.4" vType="DEFAULT_VEHTYPE" speedFactor="1.02" vaporized=""/>
    <tripinfo id="f_1_1.3" depart="220.00" departLane="4i_0" departPos="5.10" departSpeed="0.00" departDelay="0.00" arrival="253.00" arrivalLane="3o_0" arrivalPos="489.60" arrivalSpeed="54.85" duration="33.00" routeLength="994.90" waitingTime="0.00" waitingCount="0" stopTime="0.00" timeLoss="14.75" rerouteNo="0" devices="tripinfo_f_1_1.3" vType="DEFAULT_VEHTYPE" speedFactor="1.06" vaporized=""/>
    <tripinfo id="f_1_3.5" depart="224.00" departLane="3i_0" departPos="5.10" departSpeed="0.00" departDelay="4.00" arrival="256.00" arrivalLane="4o_0" arrivalPos="489.60" arrivalSpeed="54.56" duration="32.00" routeLength="994.90" waitingTime="0.00" waitingCount="0" stopTime="0.00" timeLoss="13.56" rerouteNo="0" devices="tripinfo_f_1_3.5" vType="DEFAULT_VEHTYPE" speedFactor="0.96" vaporized=""/>
    <tripinfo id="f_1_1.4" depart="223.00" departLane="4i_0" departPos="5.10" departSpeed="0.00" departDelay="1.00" arrival="256.00" arrivalLane="3o_0" arrivalPos="489.60" arrivalSpeed="55.28" duration="33.00" routeLength="994.90" waitingTime="0.00" waitingCount="0" stopTime="0.00" timeLoss="14.32" rerouteNo="0" devices="tripinfo_f_1_1.4" vType="DEFAULT_VEHTYPE" speedFactor="1.03" vaporized=""/>
    <tripinfo id="f_1_1.5" depart="226.00" departLane="4i_0" departPos="5.10" departSpeed="0.00" departDelay="1.00" arrival="258.00" arrivalLane="3o_0" arrivalPos="489.60" arrivalSpeed="54.79" duration="32.00" routeLength="994.90" waitingTime="0.00" waitingCount="0" stopTime="0.00" timeLoss="13.76" rerouteNo="0" devices="tripinfo_f_1_1.5" vType="DEFAULT_VEHTYPE" speedFactor="1.09" vaporized=""/>
    <tripinfo id="f_1_3.6" depart="227.00" departLane="3i_0" departPos="5.10" departSpeed="0.00" departDelay="6.00" arrival="260.00" arrivalLane="4o_0" arrivalPos="489.60" arrivalSpeed="54.83" duration="33.00" routeLength="994.90" waitingTime="0.00" waitingCount="0" stopTime="0.00" timeLoss="14.47" rerouteNo="0" devices="tripinfo_f_1_3.6" vType="DEFAULT_VEHTYPE" speedFactor="0.98" vaporized=""/>
    <tripinfo id="f_1_3.7" depart="230.00" departLane="3i_0" departPos="5.10" departSpeed="0.00" departDelay="8.00" arrival="262.00" arrivalLane="4o_0" arrivalPos="489.60" arrivalSpeed="55.30" duration="32.00" routeLength="994.90" waitingTime="0.00" waitingCount="0" stopTime="0.00" timeLoss="13.58" rerouteNo="0" devices="tripinfo_f_1_3.7" vType="DEFAULT_VEHTYPE" speedFactor="0.98" vaporized=""/>
    <tripinfo id="f_1_1.6" depart="231.00" departLane="4i_0" departPos="5.10" departSpeed="0.00" departDelay="0.00" arrival="264.00" arrivalLane="3o_0" arrivalPos="489.60" arrivalSpeed="55.17" duration="33.00" routeLength="994.90" waitingTime="0.00" waitingCount="0" stopTime="0.00" timeLoss="14.68" rerouteNo="0" devices="tripinfo_f_1_1.6" vType="DEFAULT_VEHTYPE" speedFactor="1.04" vaporized=""/>
    <tripinfo id="f_1_3.8" depart="233.00" departLane="3i_0" departPos="5.10" departSpeed="0.00" departDelay="9.00" arrival="266.00" arrivalLane="4o_0" arrivalPos="489.60" arrivalSpeed="55.24" duration="33.00" routeLength="994.90" waitingTime="0.00" waitingCount="0" stopTime="0.00" timeLoss="14.51" rerouteNo="0" devices="tripinfo_f_1_3.8" vType="DEFAULT_VEHTYPE" speedFactor="1.01" vaporized=""/>