<?xml version="1.0" encoding="UTF-8"?>

<!-- generated on 2024-08-23 17:47:27 by Eclipse SUMO GUI Version 1.17.0
<configuration xmlns:xsi="http://www.w3.org/2001/XMLSchema-instance" xsi:noNamespaceSchemaLocation="http://sumo.dlr.de/xsd/sumoConfiguration.xsd">

    <input>
        <net-file value="D:\inż\aktualne\inzz\AI-Traffic-Control-System\project_static.net.xml"/>
        <route-files value="D:\inż\aktualne\inzz\AI-Traffic-Control-System\project_5.rou.xml"/>
    </input>

    <output>
        <summary-output value="D:\inż\aktualne\inzz\AI-Traffic-Control-System\control_summaries\summary_project_static.xml"/>
        <tripinfo-output value="D:\inż\aktualne\inzz\AI-Traffic-Control-System\control_summaries\tripinfos_project_static.xml"/>
    </output>

    <report>
        <verbose value="true"/>
        <no-step-log value="true"/>
    </report>

</configuration>
-->

<tripinfos xmlns:xsi="http://www.w3.org/2001/XMLSchema-instance" xsi:noNamespaceSchemaLocation="http://sumo.dlr.de/xsd/tripinfo_file.xsd">
    <tripinfo id="f_0_0.0" depart="2.00" departLane="1i_0" departPos="5.10" departSpeed="0.00" departDelay="0.00" arrival="66.00" arrivalLane="2o_0" arrivalPos="489.60" arrivalSpeed="43.86" duration="64.00" routeLength="994.90" waitingTime="13.00" waitingCount="1" stopTime="0.00" timeLoss="45.97" rerouteNo="0" devices="tripinfo_f_0_0.0" vType="DEFAULT_VEHTYPE" speedFactor="1.06" vaporized=""/>
    <tripinfo id="f_0_0.1" depart="5.00" departLane="1i_0" departPos="5.10" departSpeed="0.00" departDelay="0.00" arrival="67.00" arrivalLane="2o_0" arrivalPos="489.60" arrivalSpeed="43.25" duration="62.00" routeLength="994.90" waitingTime="13.00" waitingCount="1" stopTime="0.00" timeLoss="43.83" rerouteNo="0" devices="tripinfo_f_0_0.1" vType="DEFAULT_VEHTYPE" speedFactor="0.94" vaporized=""/>
    <tripinfo id="f_0_0.2" depart="8.00" departLane="1i_0" departPos="5.10" departSpeed="0.00" departDelay="1.00" arrival="68.00" arrivalLane="2o_1" arrivalPos="489.60" arrivalSpeed="42.64" duration="60.00" routeLength="994.90" waitingTime="9.00" waitingCount="1" stopTime="0.00" timeLoss="42.06" rerouteNo="0" devices="tripinfo_f_0_0.2" vType="DEFAULT_VEHTYPE" speedFactor="1.01" vaporized=""/>
    <tripinfo id="f_0_0.3" depart="11.00" departLane="1i_0" departPos="5.10" departSpeed="0.00" departDelay="1.00" arrival="69.00" arrivalLane="2o_0" arrivalPos="489.60" arrivalSpeed="44.36" duration="58.00" routeLength="994.90" waitingTime="5.00" waitingCount="1" stopTime="0.00" timeLoss="39.49" rerouteNo="0" devices="tripinfo_f_0_0.3" vType="DEFAULT_VEHTYPE" speedFactor="1.08" vaporized=""/>
    <tripinfo id="f_0_0.4" depart="15.00" departLane="1i_0" departPos="5.10" departSpeed="0.00" departDelay="0.00" arrival="70.00" arrivalLane="2o_1" arrivalPos="489.60" arrivalSpeed="45.15" duration="55.00" routeLength="994.90" waitingTime="4.00" waitingCount="1" stopTime="0.00" timeLoss="36.62" rerouteNo="0" devices="tripinfo_f_0_0.4" vType="DEFAULT_VEHTYPE" speedFactor="1.03" vaporized=""/>
    <tripinfo id="f_0_0.5" depart="18.00" departLane="1i_0" departPos="5.10" departSpeed="0.00" departDelay="2.00" arrival="70.00" arrivalLane="2o_0" arrivalPos="489.60" arrivalSpeed="43.78" duration="52.00" routeLength="994.90" waitingTime="0.00" waitingCount="0" stopTime="0.00" timeLoss="31.77" rerouteNo="0" devices="tripinfo_f_0_0.5" vType="DEFAULT_VEHTYPE" speedFactor="0.83" vaporized=""/>
    <tripinfo id="f_0_0.6" depart="21.00" departLane="1i_0" departPos="5.10" departSpeed="0.00" departDelay="3.00" arrival="72.00" arrivalLane="2o_1" arrivalPos="489.60" arrivalSpeed="47.01" duration="51.00" routeLength="994.90" waitingTime="0.00" waitingCount="0" stopTime="0.00" timeLoss="32.33" rerouteNo="0" devices="tripinfo_f_0_0.6" vType="DEFAULT_VEHTYPE" speedFactor="1.05" vaporized=""/>
    <tripinfo id="f_0_0.8" depart="27.00" departLane="1i_0" departPos="5.10" departSpeed="0.00" departDelay="5.00" arrival="72.00" arrivalLane="2o_0" arrivalPos="489.60" arrivalSpeed="45.03" duration="45.00" routeLength="994.90" waitingTime="0.00" waitingCount="0" stopTime="0.00" timeLoss="27.02" rerouteNo="0" devices="tripinfo_f_0_0.8" vType="DEFAULT_VEHTYPE" speedFactor="0.94" vaporized=""/>
    <tripinfo id="f_0_0.7" depart="24.00" departLane="1i_0" departPos="5.10" departSpeed="0.00" departDelay="4.00" arrival="73.00" arrivalLane="2o_1" arrivalPos="489.60" arrivalSpeed="46.39" duration="49.00" routeLength="994.90" waitingTime="0.00" waitingCount="0" stopTime="0.00" timeLoss="29.94" rerouteNo="0" devices="tripinfo_f_0_0.7" vType="DEFAULT_VEHTYPE" speedFactor="0.89" vaporized=""/>
    <tripinfo id="f_0_0.9" depart="30.00" departLane="1i_0" departPos="5.10" departSpeed="0.00" departDelay="3.00" arrival="75.00" arrivalLane="2o_1" arrivalPos="489.60" arrivalSpeed="47.60" duration="45.00" routeLength="994.90" waitingTime="0.00" waitingCount="0" stopTime="0.00" timeLoss="24.74" rerouteNo="0" devices="tripinfo_f_0_0.9" vType="DEFAULT_VEHTYPE" speedFactor="0.86" vaporized=""/>
    <tripinfo id="f_0_0.10" depart="33.00" departLane="1i_0" departPos="5.10" departSpeed="0.00" departDelay="4.00" arrival="76.00" arrivalLane="2o_1" arrivalPos="489.60" arrivalSpeed="47.29" duration="43.00" routeLength="994.90" waitingTime="0.00" waitingCount="0" stopTime="0.00" timeLoss="24.48" rerouteNo="0" devices="tripinfo_f_0_0.10" vType="DEFAULT_VEHTYPE" speedFactor="1.09" vaporized=""/>
    <tripinfo id="f_0_1.1" depart="43.00" departLane="4i_0" departPos="5.10" departSpeed="0.00" departDelay="2.00" arrival="112.00" arrivalLane="3o_1" arrivalPos="489.60" arrivalSpeed="44.08" duration="69.00" routeLength="994.90" waitingTime="19.00" waitingCount="1" stopTime="0.00" timeLoss="50.76" rerouteNo="0" devices="tripinfo_f_0_1.1" vType="DEFAULT_VEHTYPE" speedFactor="1.05" vaporized=""/>
    <tripinfo id="f_0_1.0" depart="40.00" departLane="4i_0" departPos="5.10" departSpeed="0.00" departDelay="0.00" arrival="113.00" arrivalLane="3o_0" arrivalPos="489.60" arrivalSpeed="45.92" duration="73.00" routeLength="994.90" waitingTime="23.00" waitingCount="1" stopTime="0.00" timeLoss="54.27" rerouteNo="0" devices="tripinfo_f_0_1.0" vType="DEFAULT_VEHTYPE" speedFactor="1.03" vaporized=""/>
    <tripinfo id="f_0_1.2" depart="46.00" departLane="4i_0" departPos="5.10" departSpeed="0.00" departDelay="3.00" arrival="113.00" arrivalLane="3o_1" arrivalPos="489.60" arrivalSpeed="43.58" duration="67.00" routeLength="994.90" waitingTime="18.00" waitingCount="1" stopTime="0.00" timeLoss="49.02" rerouteNo="0" devices="tripinfo_f_0_1.2" vType="DEFAULT_VEHTYPE" speedFactor="1.12" vaporized=""/>
    <tripinfo id="f_0_1.3" depart="49.00" departLane="4i_0" departPos="5.10" departSpeed="0.00" departDelay="4.00" arrival="114.00" arrivalLane="3o_0" arrivalPos="489.60" arrivalSpeed="42.50" duration="65.00" routeLength="994.90" waitingTime="11.00" waitingCount="1" stopTime="0.00" timeLoss="46.97" rerouteNo="0" devices="tripinfo_f_0_1.3" vType="DEFAULT_VEHTYPE" speedFactor="0.99" vaporized=""/>
    <tripinfo id="f_0_1.4" depart="52.00" departLane="4i_0" departPos="5.10" departSpeed="0.00" departDelay="5.00" arrival="115.00" arrivalLane="3o_1" arrivalPos="489.60" arrivalSpeed="45.42" duration="63.00" routeLength="994.90" waitingTime="13.00" waitingCount="1" stopTime="0.00" timeLoss="44.47" rerouteNo="0" devices="tripinfo_f_0_1.4" vType="DEFAULT_VEHTYPE" speedFactor="0.93" vaporized=""/>
    <tripinfo id="f_0_1.5" depart="55.00" departLane="4i_0" departPos="5.10" departSpeed="0.00" departDelay="7.00" arrival="116.00" arrivalLane="3o_0" arrivalPos="489.60" arrivalSpeed="43.34" duration="61.00" routeLength="994.90" waitingTime="5.00" waitingCount="1" stopTime="0.00" timeLoss="41.52" rerouteNo="0" devices="tripinfo_f_0_1.5" vType="DEFAULT_VEHTYPE" speedFactor="0.88" vaporized=""/>
    <tripinfo id="f_0_1.6" depart="58.00" departLane="4i_0" departPos="5.10" departSpeed="0.00" departDelay="9.00" arrival="116.00" arrivalLane="3o_1" arrivalPos="489.60" arrivalSpeed="45.40" duration="58.00" routeLength="994.90" waitingTime="7.00" waitingCount="1" stopTime="0.00" timeLoss="40.04" rerouteNo="0" devices="tripinfo_f_0_1.6" vType="DEFAULT_VEHTYPE" speedFactor="0.94" vaporized=""/>
    <tripinfo id="f_0_1.7" depart="61.00" departLane="4i_0" departPos="5.10" departSpeed="0.00" departDelay="11.00" arrival="117.00" arrivalLane="3o_0" arrivalPos="489.60" arrivalSpeed="43.63" duration="56.00" routeLength="994.90" waitingTime="2.00" waitingCount="1" stopTime="0.00" timeLoss="37.78" rerouteNo="0" devices="tripinfo_f_0_1.7" vType="DEFAULT_VEHTYPE" speedFactor="0.94" vaporized=""/>
    <tripinfo id="f_0_1.8" depart="64.00" departLane="4i_0" departPos="5.10" departSpeed="0.00" departDelay="12.00" arrival="118.00" arrivalLane="3o_1" arrivalPos="489.60" arrivalSpeed="45.43" duration="54.00" routeLength="994.90" waitingTime="1.00" waitingCount="1" stopTime="0.00" timeLoss="35.67" rerouteNo="0" devices="tripinfo_f_0_1.8" vType="DEFAULT_VEHTYPE" speedFactor="1.16" vaporized=""/>
    <tripinfo id="f_0_1.9" depart="67.00" departLane="4i_0" departPos="5.10" departSpeed="0.00" departDelay="14.00" arrival="119.00" arrivalLane="3o_0" arrivalPos="489.60" arrivalSpeed="46.67" duration="52.00" routeLength="994.90" waitingTime="1.00" waitingCount="1" stopTime="0.00" timeLoss="33.32" rerouteNo="0" devices="tripinfo_f_0_1.9" vType="DEFAULT_VEHTYPE" speedFactor="1.02" vaporized=""/>
    <tripinfo id="f_0_1.10" depart="70.00" departLane="4i_0" departPos="5.10" departSpeed="0.00" departDelay="16.00" arrival="120.00" arrivalLane="3o_1" arrivalPos="489.60" arrivalSpeed="46.72" duration="50.00" routeLength="994.90" waitingTime="0.00" waitingCount="0" stopTime="0.00" timeLoss="31.34" rerouteNo="0" devices="tripinfo_f_0_1.10" vType="DEFAULT_VEHTYPE" speedFactor="1.01" vaporized=""/>
    <tripinfo id="f_0_1.11" depart="73.00" departLane="4i_0" departPos="5.10" departSpeed="0.00" departDelay="17.00" arrival="121.00" arrivalLane="3o_1" arrivalPos="489.60" arrivalSpeed="46.70" duration="48.00" routeLength="994.90" waitingTime="0.00" waitingCount="0" stopTime="0.00" timeLoss="29.61" rerouteNo="0" devices="tripinfo_f_0_1.11" vType="DEFAULT_VEHTYPE" speedFactor="0.97" vaporized=""/>
    <tripinfo id="f_0_1.12" depart="76.00" departLane="4i_0" departPos="5.10" departSpeed="0.00" departDelay="18.00" arrival="122.00" arrivalLane="3o_0" arrivalPos="489.60" arrivalSpeed="45.42" duration="46.00" routeLength="994.90" waitingTime="0.00" waitingCount="0" stopTime="0.00" timeLoss="27.09" rerouteNo="0" devices="tripinfo_f_0_1.12" vType="DEFAULT_VEHTYPE" speedFactor="0.89" vaporized=""/>
    <tripinfo id="f_0_1.13" depart="79.00" departLane="4i_0" departPos="5.10" departSpeed="0.00" departDelay="14.00" arrival="122.00" arrivalLane="3o_1" arrivalPos="489.60" arrivalSpeed="45.36" duration="43.00" routeLength="994.90" waitingTime="0.00" waitingCount="0" stopTime="0.00" timeLoss="22.69" rerouteNo="0" devices="tripinfo_f_0_1.13" vType="DEFAULT_VEHTYPE" speedFactor="0.83" vaporized=""/>
    <tripinfo id="f_0_1.14" depart="82.00" departLane="4i_0" departPos="5.10" departSpeed="0.00" departDelay="14.00" arrival="124.00" arrivalLane="3o_1" arrivalPos="489.60" arrivalSpeed="47.94" duration="42.00" routeLength="994.90" waitingTime="0.00" waitingCount="0" stopTime="0.00" timeLoss="22.17" rerouteNo="0" devices="tripinfo_f_0_1.14" vType="DEFAULT_VEHTYPE" speedFactor="0.87" vaporized=""/>
    <tripinfo id="f_0_2.1" depart="83.00" departLane="2i_0" departPos="5.10" departSpeed="0.00" departDelay="1.00" arrival="157.00" arrivalLane="1o_0" arrivalPos="489.60" arrivalSpeed="42.57" duration="74.00" routeLength="994.90" waitingTime="23.00" waitingCount="1" stopTime="0.00" timeLoss="55.61" rerouteNo="0" devices="tripinfo_f_0_2.1" vType="DEFAULT_VEHTYPE" speedFactor="0.95" vaporized=""/>
    <tripinfo id="f_0_2.0" depart="80.00" departLane="2i_0" departPos="5.10" departSpeed="0.00" departDelay="0.00" arrival="158.00" arrivalLane="1o_0" arrivalPos="489.60" arrivalSpeed="41.98" duration="78.00" routeLength="994.90" waitingTime="27.00" waitingCount="1" stopTime="0.00" timeLoss="59.78" rerouteNo="0" devices="tripinfo_f_0_2.0" vType="DEFAULT_VEHTYPE" speedFactor="0.92" vaporized=""/>
    <tripinfo id="f_0_2.2" depart="86.00" departLane="2i_0" departPos="5.10" departSpeed="0.00" departDelay="3.00" arrival="158.00" arrivalLane="1o_1" arrivalPos="489.60" arrivalSpeed="44.80" duration="72.00" routeLength="994.90" waitingTime="22.00" waitingCount="1" stopTime="0.00" timeLoss="53.96" rerouteNo="0" devices="tripinfo_f_0_2.2" vType="DEFAULT_VEHTYPE" speedFactor="1.13" vaporized=""/>
    <tripinfo id="f_0_2.4" depart="92.00" departLane="2i_0" departPos="5.10" departSpeed="0.00" departDelay="5.00" arrival="160.00" arrivalLane="1o_0" arrivalPos="489.60" arrivalSpeed="43.71" duration="68.00" routeLength="994.90" waitingTime="14.00" waitingCount="1" stopTime="0.00" timeLoss="49.76" rerouteNo="0" devices="tripinfo_f_0_2.4" vType="DEFAULT_VEHTYPE" speedFactor="1.18" vaporized=""/>
    <tripinfo id="f_0_2.5" depart="95.00" departLane="2i_0" departPos="5.10" departSpeed="0.00" departDelay="7.00" arrival="160.00" arrivalLane="1o_1" arrivalPos="489.60" arrivalSpeed="45.81" duration="65.00" routeLength="994.90" waitingTime="11.00" waitingCount="1" stopTime="0.00" timeLoss="46.37" rerouteNo="0" devices="tripinfo_f_0_2.5" vType="DEFAULT_VEHTYPE" speedFactor="1.15" vaporized=""/>
    <tripinfo id="f_0_2.6" depart="98.00" departLane="2i_0" departPos="5.10" departSpeed="0.00" departDelay="8.00" arrival="161.00" arrivalLane="1o_1" arrivalPos="489.60" arrivalSpeed="44.79" duration="63.00" routeLength="994.90" waitingTime="10.00" waitingCount="1" stopTime="0.00" timeLoss="44.73" rerouteNo="0" devices="tripinfo_f_0_2.6" vType="DEFAULT_VEHTYPE" speedFactor="1.01" vaporized=""/>
    <tripinfo id="f_0_2.3" depart="89.00" departLane="2i_0" departPos="5.10" departSpeed="0.00" departDelay="5.00" arrival="162.00" arrivalLane="1o_0" arrivalPos="489.60" arrivalSpeed="44.52" duration="73.00" routeLength="994.90" waitingTime="20.00" waitingCount="1" stopTime="0.00" timeLoss="54.49" rerouteNo="0" devices="tripinfo_f_0_2.3" vType="DEFAULT_VEHTYPE" speedFactor="0.93" vaporized=""/>
    <tripinfo id="f_0_2.7" depart="101.00" departLane="2i_0" departPos="5.10" departSpeed="0.00" departDelay="10.00" arrival="163.00" arrivalLane="1o_0" arrivalPos="489.60" arrivalSpeed="44.30" duration="62.00" routeLength="994.90" waitingTime="6.00" waitingCount="1" stopTime="0.00" timeLoss="43.78" rerouteNo="0" devices="tripinfo_f_0_2.7" vType="DEFAULT_VEHTYPE" speedFactor="1.17" vaporized=""/>
    <tripinfo id="f_0_2.8" depart="104.00" departLane="2i_0" departPos="5.10" departSpeed="0.00" departDelay="12.00" arrival="163.00" arrivalLane="1o_1" arrivalPos="489.60" arrivalSpeed="46.52" duration="59.00" routeLength="994.90" waitingTime="6.00" waitingCount="1" stopTime="0.00" timeLoss="40.43" rerouteNo="0" devices="tripinfo_f_0_2.8" vType="DEFAULT_VEHTYPE" speedFactor="0.99" vaporized=""/>
    <tripinfo id="f_0_2.9" depart="107.00" departLane="2i_0" departPos="5.10" departSpeed="0.00" departDelay="13.00" arrival="165.00" arrivalLane="1o_0" arrivalPos="489.60" arrivalSpeed="43.85" duration="58.00" routeLength="994.90" waitingTime="1.00" waitingCount="1" stopTime="0.00" timeLoss="39.63" rerouteNo="0" devices="tripinfo_f_0_2.9" vType="DEFAULT_VEHTYPE" speedFactor="1.02" vaporized=""/>
    <tripinfo id="f_0_2.10" depart="110.00" departLane="2i_0" departPos="5.10" departSpeed="0.00" departDelay="15.00" arrival="165.00" arrivalLane="1o_1" arrivalPos="489.60" arrivalSpeed="44.59" duration="55.00" routeLength="994.90" waitingTime="2.00" waitingCount="1" stopTime="0.00" timeLoss="36.59" rerouteNo="0" devices="tripinfo_f_0_2.10" vType="DEFAULT_VEHTYPE" speedFactor="0.97" vaporized=""/>
    <tripinfo id="f_0_2.11" depart="113.00" departLane="2i_0" departPos="5.10" departSpeed="0.00" departDelay="17.00" arrival="166.00" arrivalLane="1o_0" arrivalPos="489.60" arrivalSpeed="43.50" duration="53.00" routeLength="994.90" waitingTime="0.00" waitingCount="0" stopTime="0.00" timeLoss="34.85" rerouteNo="0" devices="tripinfo_f_0_2.11" vType="DEFAULT_VEHTYPE" speedFactor="1.18" vaporized=""/>
    <tripinfo id="f_0_2.12" depart="116.00" departLane="2i_0" departPos="5.10" departSpeed="0.00" departDelay="19.00" arrival="166.00" arrivalLane="1o_1" arrivalPos="489.60" arrivalSpeed="44.36" duration="50.00" routeLength="994.90" waitingTime="0.00" waitingCount="0" stopTime="0.00" timeLoss="31.90" rerouteNo="0" devices="tripinfo_f_0_2.12" vType="DEFAULT_VEHTYPE" speedFactor="1.10" vaporized=""/>
    <tripinfo id="f_0_2.13" depart="118.00" departLane="2i_0" departPos="5.10" departSpeed="0.00" departDelay="19.00" arrival="168.00" arrivalLane="1o_0" arrivalPos="489.60" arrivalSpeed="43.90" duration="50.00" routeLength="994.90" waitingTime="0.00" waitingCount="0" stopTime="0.00" timeLoss="31.15" rerouteNo="0" devices="tripinfo_f_0_2.13" vType="DEFAULT_VEHTYPE" speedFactor="0.90" vaporized=""/>
    <tripinfo id="f_0_2.14" depart="121.00" departLane="2i_0" departPos="5.10" departSpeed="0.00" departDelay="21.00" arrival="168.00" arrivalLane="1o_1" arrivalPos="489.60" arrivalSpeed="46.77" duration="47.00" routeLength="994.90" waitingTime="0.00" waitingCount="0" stopTime="0.00" timeLoss="28.28" rerouteNo="0" devices="tripinfo_f_0_2.14" vType="DEFAULT_VEHTYPE" speedFactor="1.03" vaporized=""/>
    <tripinfo id="f_0_2.15" depart="125.00" departLane="2i_0" departPos="5.10" departSpeed="0.00" departDelay="24.00" arrival="169.00" arrivalLane="1o_1" arrivalPos="489.60" arrivalSpeed="44.56" duration="44.00" routeLength="994.90" waitingTime="0.00" waitingCount="0" stopTime="0.00" timeLoss="25.62" rerouteNo="0" devices="tripinfo_f_0_2.15" vType="DEFAULT_VEHTYPE" speedFactor="0.96" vaporized=""/>
    <tripinfo id="f_0_2.16" depart="128.00" departLane="2i_0" departPos="5.10" departSpeed="0.00" departDelay="23.00" arrival="170.00" arrivalLane="1o_1" arrivalPos="489.60" arrivalSpeed="44.63" duration="42.00" routeLength="994.90" waitingTime="0.00" waitingCount="0" stopTime="0.00" timeLoss="23.88" rerouteNo="0" devices="tripinfo_f_0_2.16" vType="DEFAULT_VEHTYPE" speedFactor="1.09" vaporized=""/>
    <tripinfo id="f_0_2.17" depart="131.00" departLane="2i_0" departPos="5.10" departSpeed="0.00" departDelay="22.00" arrival="171.00" arrivalLane="1o_0" arrivalPos="489.60" arrivalSpeed="44.82" duration="40.00" routeLength="994.90" waitingTime="0.00" waitingCount="0" stopTime="0.00" timeLoss="21.93" rerouteNo="0" devices="tripinfo_f_0_2.17" vType="DEFAULT_VEHTYPE" speedFactor="1.04" vaporized=""/>
    <tripinfo id="f_0_3.1" depart="123.00" departLane="3i_0" departPos="5.10" departSpeed="0.00" departDelay="1.00" arrival="201.00" arrivalLane="4o_1" arrivalPos="489.60" arrivalSpeed="44.67" duration="78.00" routeLength="994.90" waitingTime="30.00" waitingCount="1" stopTime="0.00" timeLoss="59.89" rerouteNo="0" devices="tripinfo_f_0_3.1" vType="DEFAULT_VEHTYPE" speedFactor="1.09" vaporized=""/>
    <tripinfo id="f_0_3.0" depart="120.00" departLane="3i_0" departPos="5.10" departSpeed="0.00" departDelay="0.00" arrival="202.00" arrivalLane="4o_0" arrivalPos="489.60" arrivalSpeed="44.32" duration="82.00" routeLength="994.90" waitingTime="33.00" waitingCount="1" stopTime="0.00" timeLoss="63.65" rerouteNo="0" devices="tripinfo_f_0_3.0" vType="DEFAULT_VEHTYPE" speedFactor="1.04" vaporized=""/>
    <tripinfo id="f_0_3.2" depart="126.00" departLane="3i_0" departPos="5.10" departSpeed="0.00" departDelay="3.00" arrival="203.00" arrivalLane="4o_1" arrivalPos="489.60" arrivalSpeed="44.25" duration="77.00" routeLength="994.90" waitingTime="26.00" waitingCount="1" stopTime="0.00" timeLoss="58.94" rerouteNo="0" devices="tripinfo_f_0_3.2" vType="DEFAULT_VEHTYPE" speedFactor="1.00" vaporized=""/>
    <tripinfo id="f_0_3.3" depart="129.00" departLane="3i_0" departPos="5.10" departSpeed="0.00" departDelay="5.00" arrival="203.00" arrivalLane="4o_0" arrivalPos="489.60" arrivalSpeed="43.67" duration="74.00" routeLength="994.90" waitingTime="21.00" waitingCount="1" stopTime="0.00" timeLoss="55.40" rerouteNo="0" devices="tripinfo_f_0_3.3" vType="DEFAULT_VEHTYPE" speedFactor="0.90" vaporized=""/>
    <tripinfo id="f_0_3.4" depart="135.00" departLane="3i_0" departPos="5.10" departSpeed="0.00" departDelay="0.00" arrival="205.00" arrivalLane="4o_1" arrivalPos="489.60" arrivalSpeed="44.23" duration="70.00" routeLength="994.90" waitingTime="19.00" waitingCount="1" stopTime="0.00" timeLoss="50.85" rerouteNo="0" devices="tripinfo_f_0_3.4" vType="DEFAULT_VEHTYPE" speedFactor="0.88" vaporized=""/>
    <tripinfo id="f_0_3.5" depart="138.00" departLane="3i_0" departPos="5.10" departSpeed="0.00" departDelay="2.00" arrival="206.00" arrivalLane="4o_0" arrivalPos="489.60" arrivalSpeed="43.17" duration="68.00" routeLength="994.90" waitingTime="15.00" waitingCount="1" stopTime="0.00" timeLoss="47.83" rerouteNo="0" devices="tripinfo_f_0_3.5" vType="DEFAULT_VEHTYPE" speedFactor="0.85" vaporized=""/>
    <tripinfo id="f_0_3.6" depart="141.00" departLane="3i_0" departPos="5.10" departSpeed="0.00" departDelay="4.00" arrival="207.00" arrivalLane="4o_1" arrivalPos="489.60" arrivalSpeed="44.12" duration="66.00" routeLength="994.90" waitingTime="15.00" waitingCount="1" stopTime="0.00" timeLoss="46.00" rerouteNo="0" devices="tripinfo_f_0_3.6" vType="DEFAULT_VEHTYPE" speedFactor="0.85" vaporized=""/>
    <tripinfo id="f_0_3.7" depart="144.00" departLane="3i_0" departPos="5.10" departSpeed="0.00" departDelay="5.00" arrival="208.00" arrivalLane="4o_1" arrivalPos="489.60" arrivalSpeed="44.52" duration="64.00" routeLength="994.90" waitingTime="12.00" waitingCount="1" stopTime="0.00" timeLoss="45.95" rerouteNo="0" devices="tripinfo_f_0_3.7" vType="DEFAULT_VEHTYPE" speedFactor="1.17" vaporized=""/>
    <tripinfo id="f_0_3.8" depart="147.00" departLane="3i_0" departPos="5.10" departSpeed="0.00" departDelay="4.00" arrival="209.00" arrivalLane="4o_0" arrivalPos="489.60" arrivalSpeed="42.76" duration="62.00" routeLength="994.90" waitingTime="7.00" waitingCount="1" stopTime="0.00" timeLoss="43.58" rerouteNo="0" devices="tripinfo_f_0_3.8" vType="DEFAULT_VEHTYPE" speedFactor="1.02" vaporized=""/>
    <tripinfo id="f_0_3.9" depart="150.00" departLane="3i_0" departPos="5.10" departSpeed="0.00" departDelay="5.00" arrival="210.00" arrivalLane="4o_0" arrivalPos="489.60" arrivalSpeed="41.98" duration="60.00" routeLength="994.90" waitingTime="4.00" waitingCount="1" stopTime="0.00" timeLoss="42.09" rerouteNo="0" devices="tripinfo_f_0_3.9" vType="DEFAULT_VEHTYPE" speedFactor="1.10" vaporized=""/>
    <tripinfo id="f_0_3.10" depart="153.00" departLane="3i_0" departPos="5.10" departSpeed="0.00" departDelay="6.00" arrival="210.00" arrivalLane="4o_1" arrivalPos="489.60" arrivalSpeed="46.05" duration="57.00" routeLength="994.90" waitingTime="5.00" waitingCount="1" stopTime="0.00" timeLoss="38.49" rerouteNo="0" devices="tripinfo_f_0_3.10" vType="DEFAULT_VEHTYPE" speedFactor="1.00" vaporized=""/>
    <tripinfo id="f_0_3.11" depart="156.00" departLane="3i_0" departPos="5.10" departSpeed="0.00" departDelay="7.00" arrival="212.00" arrivalLane="4o_0" arrivalPos="489.60" arrivalSpeed="44.13" duration="56.00" routeLength="994.90" waitingTime="0.00" waitingCount="0" stopTime="0.00" timeLoss="37.57" rerouteNo="0" devices="tripinfo_f_0_3.11" vType="DEFAULT_VEHTYPE" speedFactor="1.00" vaporized=""/>
    <tripinfo id="f_1_1.0" depart="200.00" departLane="4i_0" departPos="5.10" departSpeed="0.00" departDelay="0.00" arrival="233.00" arrivalLane="3o_0" arrivalPos="489.60" arrivalSpeed="53.90" duration="33.00" routeLength="994.90" waitingTime="0.00" waitingCount="0" stopTime="0.00" timeLoss="14.05" rerouteNo="0" devices="tripinfo_f_1_1.0" vType="DEFAULT_VEHTYPE" speedFactor="0.90" vaporized=""/>
    <tripinfo id="f_1_2.0" depart="201.00" departLane="2i_0" departPos="5.10" departSpeed="0.00" departDelay="0.00" arrival="240.00" arrivalLane="1o_0" arrivalPos="489.60" arrivalSpeed="48.27" duration="39.00" routeLength="994.90" waitingTime="0.00" waitingCount="0" stopTime="0.00" timeLoss="21.07" rerouteNo="0" devices="tripinfo_f_1_2.0" vType="DEFAULT_VEHTYPE" speedFactor="1.14" vaporized=""/>
    <tripinfo id="f_1_0.0" depart="209.00" departLane="1i_0" departPos="5.10" departSpeed="0.00" departDelay="0.00" arrival="242.00" arrivalLane="2o_0" arrivalPos="489.60" arrivalSpeed="54.99" duration="33.00" routeLength="994.90" waitingTime="0.00" waitingCount="0" stopTime="0.00" timeLoss="14.18" rerouteNo="0" devices="tripinfo_f_1_0.0" vType="DEFAULT_VEHTYPE" speedFactor="1.12" vaporized=""/>
    <tripinfo id="f_1_2.1" depart="212.00" departLane="2i_0" departPos="5.10" departSpeed="0.00" departDelay="0.00" arrival="244.00" arrivalLane="1o_0" arrivalPos="489.60" arrivalSpeed="55.47" duration="32.00" routeLength="994.90" waitingTime="0.00" waitingCount="0" stopTime="0.00" timeLoss="13.93" rerouteNo="0" devices="tripinfo_f_1_2.1" vType="DEFAULT_VEHTYPE" speedFactor="0.99" vaporized=""/>
    <tripinfo id="f_1_0.1" depart="212.00" departLane="1i_0" departPos="5.10" departSpeed="0.00" departDelay="2.00" arrival="245.00" arrivalLane="2o_0" arrivalPos="489.60" arrivalSpeed="54.54" duration="33.00" routeLength="994.90" waitingTime="0.00" waitingCount="0" stopTime="0.00" timeLoss="14.37" rerouteNo="0" devices="tripinfo_f_1_0.1" vType="DEFAULT_VEHTYPE" speedFactor="1.02" vaporized=""/>
    <tripinfo id="f_1_2.2" depart="215.00" departLane="2i_0" departPos="5.10" departSpeed="0.00" departDelay="2.00" arrival="248.00" arrivalLane="1o_0" arrivalPos="489.60" arrivalSpeed="52.33" duration="33.00" routeLength="994.90" waitingTime="0.00" waitingCount="0" stopTime="0.00" timeLoss="13.65" rerouteNo="0" devices="tripinfo_f_1_2.2" vType="DEFAULT_VEHTYPE" speedFactor="0.88" vaporized=""/>
    <tripinfo id="f_1_0.2" depart="216.00" departLane="1i_0" departPos="5.10" departSpeed="0.00" departDelay="0.00" arrival="248.00" arrivalLane="2o_0" arrivalPos="489.60" arrivalSpeed="55.54" duration="32.00" routeLength="994.90" waitingTime="0.00" waitingCount="0" stopTime="0.00" timeLoss="13.45" rerouteNo="0" devices="tripinfo_f_1_0.2" vType="DEFAULT_VEHTYPE" speedFactor="1.04" vaporized=""/>
    <tripinfo id="f_1_2.3" depart="218.00" departLane="2i_0" departPos="5.10" departSpeed="0.00" departDelay="2.00" arrival="250.00" arrivalLane="1o_0" arrivalPos="489.60" arrivalSpeed="55.43" duration="32.00" routeLength="994.90" waitingTime="0.00" waitingCount="0" stopTime="0.00" timeLoss="13.75" rerouteNo="0" devices="tripinfo_f_1_2.3" vType="DEFAULT_VEHTYPE" speedFactor="1.02" vaporized=""/>
    <tripinfo id="f_1_2.4" depart="221.00" departLane="2i_0" departPos="5.10" departSpeed="0.00" departDelay="4.00" arrival="253.00" arrivalLane="1o_0" arrivalPos="489.60" arrivalSpeed="54.70" duration="32.00" routeLength="994.90" waitingTime="0.00" waitingCount="0" stopTime="0.00" timeLoss="13.47" rerouteNo="0" devices="tripinfo_f_1_2.4" vType="DEFAULT_VEHTYPE" speedFactor="0.97" vaporized=""/>
    <tripinfo id="f_1_2.5" depart="224.00" departLane="2i_0" departPos="5.10" departSpeed="0.00" departDelay="6.00" arrival="257.00" arrivalLane="1o_0" arrivalPos="489.60" arrivalSpeed="54.44" duration="33.00" routeLength="994.90" waitingTime="0.00" waitingCount="0" stopTime="0.00" timeLoss="14.67" rerouteNo="0" devices="tripinfo_f_1_2.5" vType="DEFAULT_VEHTYPE" speedFactor="0.94" vaporized=""/>
    <tripinfo id="f_1_2.6" depart="227.00" departLane="2i_0" departPos="5.10" departSpeed="0.00" departDelay="0.00" arrival="259.00" arrivalLane="1o_0" arrivalPos="489.60" arrivalSpeed="54.48" duration="32.00" routeLength="994.90" waitingTime="0.00" waitingCount="0" stopTime="0.00" timeLoss="13.54" rerouteNo="0" devices="tripinfo_f_1_2.6" vType="DEFAULT_VEHTYPE" speedFactor="1.02" vaporized=""/>
    <tripinfo id="f_1_2.7" depart="230.00" departLane="2i_0" departPos="5.10" departSpeed="0.00" departDelay="2.00" arrival="262.00" arrivalLane="1o_0" arrivalPos="489.60" arrivalSpeed="54.76" duration="32.00" routeLength="994.90" waitingTime="0.00" waitingCount="0" stopTime="0.00" timeLoss="14.01" rerouteNo="0" devices="tripinfo_f_1_2.7" vType="DEFAULT_VEHTYPE" speedFactor="0.97" vaporized=""/>
    <tripinfo id="f_1_0.3" depart="230.00" departLane="1i_0" departPos="5.10" departSpeed="0.00" departDelay="0.00" arrival="262.00" arrivalLane="2o_0" arrivalPos="489.60" arrivalSpeed="55.48" duration="32.00" routeLength="994.90" waitingTime="0.00" waitingCount="0" stopTime="0.00" timeLoss="13.88" rerouteNo="0" devices="tripinfo_f_1_0.3" vType="DEFAULT_VEHTYPE" speedFactor="1.15" vaporized=""/>
    <tripinfo id="f_1_0.4" depart="233.00" departLane="1i_0" departPos="5.10" departSpeed="0.00" departDelay="2.00" arrival="265.00" arrivalLane="2o_0" arrivalPos="489.60" arrivalSpeed="55.20" duration="32.00" routeLength="994.90" waitingTime="0.00" waitingCount="0" stopTime="0.00" timeLoss="13.26" rerouteNo="0" devices="tripinfo_f_1_0.4" vType="DEFAULT_VEHTYPE" speedFactor="1.00" vaporized=""/>
    <tripinfo id="f_1_2.8" depart="233.00" departLane="2i_0" departPos="5.10" departSpeed="0.00" departDelay="1.00" arrival="265.00" arrivalLane="1o_0" arrivalPos="489.60" arrivalSpeed="55.45" duration="32.00" routeLength="994.90" waitingTime="0.00" waitingCount="0" stopTime="0.00" timeLoss="13.56" rerouteNo="0" devices="tripinfo_f_1_2.8" vType="DEFAULT_VEHTYPE" speedFactor="1.02" vaporized=""/>
    <tripinfo id="f_1_2.9" depart="236.00" departLane="2i_0" departPos="5.10" departSpeed="0.00" departDelay="1.00" arrival="268.00" arrivalLane="1o_0" arrivalPos="489.60" arrivalSpeed="55.46" duration="32.00" routeLength="994.90" waitingTime="0.00" waitingCount="0" stopTime="0.00" timeLoss="14.03" rerouteNo="0" devices="tripinfo_f_1_2.9" vType="DEFAULT_VEHTYPE" speedFactor="1.02" vaporized=""/>