<?xml version="1.0" encoding="UTF-8"?>

<!-- generated on 2024-08-23 17:21:55 by Eclipse SUMO sumo Version 1.17.0
<configuration xmlns:xsi="http://www.w3.org/2001/XMLSchema-instance" xsi:noNamespaceSchemaLocation="http://sumo.dlr.de/xsd/sumoConfiguration.xsd">

    <input>
        <net-file value="project_no_lights.net.xml"/>
        <route-files value="project_4.rou.xml"/>
    </input>

    <output>
        <summary-output value="control_summaries\summary_project_no_lights_4.xml"/>
        <tripinfo-output value="control_summaries\tripinfos_project_no_lights_4.xml"/>
    </output>

    <processing>
        <time-to-teleport value="-1"/>
    </processing>

    <traci_server>
        <remote-port value="65266"/>
    </traci_server>

</configuration>
-->

<tripinfos xmlns:xsi="http://www.w3.org/2001/XMLSchema-instance" xsi:noNamespaceSchemaLocation="http://sumo.dlr.de/xsd/tripinfo_file.xsd">
    <tripinfo id="f_0_0.0" depart="2.00" departLane="1i_0" departPos="5.10" departSpeed="0.00" departDelay="0.00" arrival="48.00" arrivalLane="2o_0" arrivalPos="489.60" arrivalSpeed="44.71" duration="46.00" routeLength="994.90" waitingTime="0.00" waitingCount="0" stopTime="0.00" timeLoss="27.83" rerouteNo="0" devices="tripinfo_f_0_0.0" vType="DEFAULT_VEHTYPE" speedFactor="1.06" vaporized=""/>
    <tripinfo id="f_0_0.1" depart="5.00" departLane="1i_0" departPos="5.10" departSpeed="0.00" departDelay="2.00" arrival="49.00" arrivalLane="2o_1" arrivalPos="489.60" arrivalSpeed="46.37" duration="44.00" routeLength="994.90" waitingTime="0.00" waitingCount="0" stopTime="0.00" timeLoss="25.73" rerouteNo="0" devices="tripinfo_f_0_0.1" vType="DEFAULT_VEHTYPE" speedFactor="0.94" vaporized=""/>
    <tripinfo id="f_0_0.2" depart="8.00" departLane="1i_0" departPos="5.10" departSpeed="0.00" departDelay="3.00" arrival="52.00" arrivalLane="2o_1" arrivalPos="489.60" arrivalSpeed="44.26" duration="44.00" routeLength="994.90" waitingTime="0.00" waitingCount="0" stopTime="0.00" timeLoss="25.87" rerouteNo="0" devices="tripinfo_f_0_0.2" vType="DEFAULT_VEHTYPE" speedFactor="1.01" vaporized=""/>
    <tripinfo id="f_0_1.0" depart="23.00" departLane="4i_0" departPos="5.10" departSpeed="0.00" departDelay="0.00" arrival="56.00" arrivalLane="3o_0" arrivalPos="489.60" arrivalSpeed="55.42" duration="33.00" routeLength="994.90" waitingTime="0.00" waitingCount="0" stopTime="0.00" timeLoss="15.07" rerouteNo="0" devices="tripinfo_f_0_1.0" vType="DEFAULT_VEHTYPE" speedFactor="1.05" vaporized=""/>
    <tripinfo id="f_0_0.3" depart="11.00" departLane="1i_0" departPos="5.10" departSpeed="0.00" departDelay="4.00" arrival="58.00" arrivalLane="2o_1" arrivalPos="489.60" arrivalSpeed="44.14" duration="47.00" routeLength="994.90" waitingTime="0.00" waitingCount="0" stopTime="0.00" timeLoss="28.78" rerouteNo="0" devices="tripinfo_f_0_0.3" vType="DEFAULT_VEHTYPE" speedFactor="1.08" vaporized=""/>
    <tripinfo id="f_0_1.1" depart="26.00" departLane="4i_0" departPos="5.10" departSpeed="0.00" departDelay="2.00" arrival="58.00" arrivalLane="3o_1" arrivalPos="489.60" arrivalSpeed="55.32" duration="32.00" routeLength="994.90" waitingTime="0.00" waitingCount="0" stopTime="0.00" timeLoss="13.71" rerouteNo="0" devices="tripinfo_f_0_1.1" vType="DEFAULT_VEHTYPE" speedFactor="1.12" vaporized=""/>
    <tripinfo id="f_0_0.4" depart="14.00" departLane="1i_0" departPos="5.10" departSpeed="0.00" departDelay="4.00" arrival="60.00" arrivalLane="2o_0" arrivalPos="489.60" arrivalSpeed="43.89" duration="46.00" routeLength="994.90" waitingTime="0.00" waitingCount="0" stopTime="0.00" timeLoss="27.99" rerouteNo="0" devices="tripinfo_f_0_0.4" vType="DEFAULT_VEHTYPE" speedFactor="1.03" vaporized=""/>
    <tripinfo id="f_0_1.2" depart="29.00" departLane="4i_0" departPos="5.10" departSpeed="0.00" departDelay="4.00" arrival="61.00" arrivalLane="3o_0" arrivalPos="489.60" arrivalSpeed="54.42" duration="32.00" routeLength="994.90" waitingTime="0.00" waitingCount="0" stopTime="0.00" timeLoss="13.51" rerouteNo="0" devices="tripinfo_f_0_1.2" vType="DEFAULT_VEHTYPE" speedFactor="0.93" vaporized=""/>
    <tripinfo id="f_0_1.3" depart="32.00" departLane="4i_0" departPos="5.10" departSpeed="0.00" departDelay="6.00" arrival="64.00" arrivalLane="3o_0" arrivalPos="489.60" arrivalSpeed="52.02" duration="32.00" routeLength="994.90" waitingTime="0.00" waitingCount="0" stopTime="0.00" timeLoss="12.89" rerouteNo="0" devices="tripinfo_f_0_1.3" vType="DEFAULT_VEHTYPE" speedFactor="0.88" vaporized=""/>
    <tripinfo id="f_0_1.4" depart="35.00" departLane="4i_0" departPos="5.10" departSpeed="0.00" departDelay="8.00" arrival="66.00" arrivalLane="3o_0" arrivalPos="489.60" arrivalSpeed="55.31" duration="31.00" routeLength="994.90" waitingTime="0.00" waitingCount="0" stopTime="0.00" timeLoss="12.92" rerouteNo="0" devices="tripinfo_f_0_1.4" vType="DEFAULT_VEHTYPE" speedFactor="0.94" vaporized=""/>
    <tripinfo id="f_0_1.5" depart="38.00" departLane="4i_0" departPos="5.10" departSpeed="0.00" departDelay="10.00" arrival="69.00" arrivalLane="3o_0" arrivalPos="489.60" arrivalSpeed="55.46" duration="31.00" routeLength="994.90" waitingTime="0.00" waitingCount="0" stopTime="0.00" timeLoss="12.80" rerouteNo="0" devices="tripinfo_f_0_1.5" vType="DEFAULT_VEHTYPE" speedFactor="0.94" vaporized=""/>
    <tripinfo id="f_0_1.6" depart="41.00" departLane="4i_0" departPos="5.10" departSpeed="0.00" departDelay="12.00" arrival="73.00" arrivalLane="3o_0" arrivalPos="489.60" arrivalSpeed="55.54" duration="32.00" routeLength="994.90" waitingTime="0.00" waitingCount="0" stopTime="0.00" timeLoss="13.25" rerouteNo="0" devices="tripinfo_f_0_1.6" vType="DEFAULT_VEHTYPE" speedFactor="1.02" vaporized=""/>
    <tripinfo id="f_0_1.7" depart="44.00" departLane="4i_0" departPos="5.10" departSpeed="0.00" departDelay="13.00" arrival="77.00" arrivalLane="3o_0" arrivalPos="489.60" arrivalSpeed="53.18" duration="33.00" routeLength="994.90" waitingTime="0.00" waitingCount="0" stopTime="0.00" timeLoss="14.29" rerouteNo="0" devices="tripinfo_f_0_1.7" vType="DEFAULT_VEHTYPE" speedFactor="0.89" vaporized=""/>
    <tripinfo id="f_0_1.8" depart="47.00" departLane="4i_0" departPos="5.10" departSpeed="0.00" departDelay="10.00" arrival="79.00" arrivalLane="3o_0" arrivalPos="489.60" arrivalSpeed="54.75" duration="32.00" routeLength="994.90" waitingTime="0.00" waitingCount="0" stopTime="0.00" timeLoss="13.96" rerouteNo="0" devices="tripinfo_f_0_1.8" vType="DEFAULT_VEHTYPE" speedFactor="0.95" vaporized=""/>
    <tripinfo id="f_0_1.9" depart="50.00" departLane="4i_0" departPos="5.10" departSpeed="0.00" departDelay="9.00" arrival="83.00" arrivalLane="3o_0" arrivalPos="489.60" arrivalSpeed="54.90" duration="33.00" routeLength="994.90" waitingTime="0.00" waitingCount="0" stopTime="0.00" timeLoss="14.89" rerouteNo="0" devices="tripinfo_f_0_1.9" vType="DEFAULT_VEHTYPE" speedFactor="1.17" vaporized=""/>
    <tripinfo id="f_0_1.10" depart="53.00" departLane="4i_0" departPos="5.10" departSpeed="0.00" departDelay="11.00" arrival="86.00" arrivalLane="3o_0" arrivalPos="489.60" arrivalSpeed="54.81" duration="33.00" routeLength="994.90" waitingTime="0.00" waitingCount="0" stopTime="0.00" timeLoss="14.21" rerouteNo="0" devices="tripinfo_f_0_1.10" vType="DEFAULT_VEHTYPE" speedFactor="0.99" vaporized=""/>
    <tripinfo id="f_0_1.11" depart="56.00" departLane="4i_0" departPos="5.10" departSpeed="0.00" departDelay="13.00" arrival="88.00" arrivalLane="3o_0" arrivalPos="489.60" arrivalSpeed="54.75" duration="32.00" routeLength="994.90" waitingTime="0.00" waitingCount="0" stopTime="0.00" timeLoss="13.97" rerouteNo="0" devices="tripinfo_f_0_1.11" vType="DEFAULT_VEHTYPE" speedFactor="0.97" vaporized=""/>
    <tripinfo id="f_0_1.12" depart="59.00" departLane="4i_0" departPos="5.10" departSpeed="0.00" departDelay="14.00" arrival="92.00" arrivalLane="3o_0" arrivalPos="489.60" arrivalSpeed="54.91" duration="33.00" routeLength="994.90" waitingTime="0.00" waitingCount="0" stopTime="0.00" timeLoss="14.79" rerouteNo="0" devices="tripinfo_f_0_1.12" vType="DEFAULT_VEHTYPE" speedFactor="0.96" vaporized=""/>
    <tripinfo id="f_0_1.13" depart="62.00" departLane="4i_0" departPos="5.10" departSpeed="0.00" departDelay="16.00" arrival="95.00" arrivalLane="3o_0" arrivalPos="489.60" arrivalSpeed="55.20" duration="33.00" routeLength="994.90" waitingTime="0.00" waitingCount="0" stopTime="0.00" timeLoss="14.37" rerouteNo="0" devices="tripinfo_f_0_1.13" vType="DEFAULT_VEHTYPE" speedFactor="1.04" vaporized=""/>
    <tripinfo id="f_0_1.14" depart="65.00" departLane="4i_0" departPos="5.10" departSpeed="0.00" departDelay="17.00" arrival="98.00" arrivalLane="3o_0" arrivalPos="489.60" arrivalSpeed="53.37" duration="33.00" routeLength="994.90" waitingTime="0.00" waitingCount="0" stopTime="0.00" timeLoss="14.36" rerouteNo="0" devices="tripinfo_f_0_1.14" vType="DEFAULT_VEHTYPE" speedFactor="0.90" vaporized=""/>
    <tripinfo id="f_0_1.15" depart="69.00" departLane="4i_0" departPos="5.10" departSpeed="0.00" departDelay="18.00" arrival="101.00" arrivalLane="3o_0" arrivalPos="489.60" arrivalSpeed="54.79" duration="32.00" routeLength="994.90" waitingTime="0.00" waitingCount="0" stopTime="0.00" timeLoss="13.63" rerouteNo="0" devices="tripinfo_f_0_1.15" vType="DEFAULT_VEHTYPE" speedFactor="1.02" vaporized=""/>
    <tripinfo id="f_0_1.16" depart="72.00" departLane="4i_0" departPos="5.10" departSpeed="0.00" departDelay="17.00" arrival="104.00" arrivalLane="3o_0" arrivalPos="489.60" arrivalSpeed="54.88" duration="32.00" routeLength="994.90" waitingTime="0.00" waitingCount="0" stopTime="0.00" timeLoss="13.22" rerouteNo="0" devices="tripinfo_f_0_1.16" vType="DEFAULT_VEHTYPE" speedFactor="1.14" vaporized=""/>
    <tripinfo id="f_0_1.17" depart="75.00" departLane="4i_0" departPos="5.10" departSpeed="0.00" departDelay="19.00" arrival="108.00" arrivalLane="3o_0" arrivalPos="489.60" arrivalSpeed="54.65" duration="33.00" routeLength="994.90" waitingTime="0.00" waitingCount="0" stopTime="0.00" timeLoss="14.42" rerouteNo="0" devices="tripinfo_f_0_1.17" vType="DEFAULT_VEHTYPE" speedFactor="0.97" vaporized=""/>
    <tripinfo id="f_0_1.18" depart="78.00" departLane="4i_0" departPos="5.10" departSpeed="0.00" departDelay="20.00" arrival="110.00" arrivalLane="3o_0" arrivalPos="489.60" arrivalSpeed="55.02" duration="32.00" routeLength="994.90" waitingTime="0.00" waitingCount="0" stopTime="0.00" timeLoss="13.24" rerouteNo="0" devices="tripinfo_f_0_1.18" vType="DEFAULT_VEHTYPE" speedFactor="1.02" vaporized=""/>
    <tripinfo id="f_0_3.0" depart="80.00" departLane="3i_0" departPos="5.10" departSpeed="0.00" departDelay="0.00" arrival="112.00" arrivalLane="4o_0" arrivalPos="489.60" arrivalSpeed="53.26" duration="32.00" routeLength="994.90" waitingTime="0.00" waitingCount="0" stopTime="0.00" timeLoss="13.00" rerouteNo="0" devices="tripinfo_f_0_3.0" vType="DEFAULT_VEHTYPE" speedFactor="0.91" vaporized=""/>
    <tripinfo id="f_0_1.19" depart="81.00" departLane="4i_0" departPos="5.10" departSpeed="0.00" departDelay="21.00" arrival="114.00" arrivalLane="3o_0" arrivalPos="489.60" arrivalSpeed="54.13" duration="33.00" routeLength="994.90" waitingTime="0.00" waitingCount="0" stopTime="0.00" timeLoss="14.02" rerouteNo="0" devices="tripinfo_f_0_1.19" vType="DEFAULT_VEHTYPE" speedFactor="0.91" vaporized=""/>
    <tripinfo id="f_0_3.1" depart="83.00" departLane="3i_0" departPos="5.10" departSpeed="0.00" departDelay="2.00" arrival="114.00" arrivalLane="4o_0" arrivalPos="489.60" arrivalSpeed="55.00" duration="31.00" routeLength="994.90" waitingTime="0.00" waitingCount="0" stopTime="0.00" timeLoss="12.65" rerouteNo="0" devices="tripinfo_f_0_3.1" vType="DEFAULT_VEHTYPE" speedFactor="0.96" vaporized=""/>
    <tripinfo id="f_0_1.20" depart="84.00" departLane="4i_0" departPos="5.10" departSpeed="0.00" departDelay="21.00" arrival="117.00" arrivalLane="3o_0" arrivalPos="489.60" arrivalSpeed="55.40" duration="33.00" routeLength="994.90" waitingTime="0.00" waitingCount="0" stopTime="0.00" timeLoss="14.61" rerouteNo="0" devices="tripinfo_f_0_1.20" vType="DEFAULT_VEHTYPE" speedFactor="1.02" vaporized=""/>
    <tripinfo id="f_0_3.2" depart="86.00" departLane="3i_0" departPos="5.10" departSpeed="0.00" departDelay="1.00" arrival="118.00" arrivalLane="4o_0" arrivalPos="489.60" arrivalSpeed="55.19" duration="32.00" routeLength="994.90" waitingTime="0.00" waitingCount="0" stopTime="0.00" timeLoss="13.84" rerouteNo="0" devices="tripinfo_f_0_3.2" vType="DEFAULT_VEHTYPE" speedFactor="0.93" vaporized=""/>
    <tripinfo id="f_0_1.21" depart="87.00" departLane="4i_0" departPos="5.10" departSpeed="0.00" departDelay="23.00" arrival="119.00" arrivalLane="3o_0" arrivalPos="489.60" arrivalSpeed="54.80" duration="32.00" routeLength="994.90" waitingTime="0.00" waitingCount="0" stopTime="0.00" timeLoss="13.71" rerouteNo="0" devices="tripinfo_f_0_1.21" vType="DEFAULT_VEHTYPE" speedFactor="0.94" vaporized=""/>
    <tripinfo id="f_0_3.3" depart="89.00" departLane="3i_0" departPos="5.10" departSpeed="0.00" departDelay="3.00" arrival="121.00" arrivalLane="4o_0" arrivalPos="489.60" arrivalSpeed="51.42" duration="32.00" routeLength="994.90" waitingTime="0.00" waitingCount="0" stopTime="0.00" timeLoss="12.74" rerouteNo="0" devices="tripinfo_f_0_3.3" vType="DEFAULT_VEHTYPE" speedFactor="0.87" vaporized=""/>
    <tripinfo id="f_0_1.22" depart="90.00" departLane="4i_0" departPos="5.10" departSpeed="0.00" departDelay="21.00" arrival="123.00" arrivalLane="3o_0" arrivalPos="489.60" arrivalSpeed="55.32" duration="33.00" routeLength="994.90" waitingTime="0.00" waitingCount="0" stopTime="0.00" timeLoss="14.35" rerouteNo="0" devices="tripinfo_f_0_1.22" vType="DEFAULT_VEHTYPE" speedFactor="1.03" vaporized=""/>
    <tripinfo id="f_0_3.4" depart="92.00" departLane="3i_0" departPos="5.10" departSpeed="0.00" departDelay="5.00" arrival="124.00" arrivalLane="4o_0" arrivalPos="489.60" arrivalSpeed="54.97" duration="32.00" routeLength="994.90" waitingTime="0.00" waitingCount="0" stopTime="0.00" timeLoss="13.25" rerouteNo="0" devices="tripinfo_f_0_3.4" vType="DEFAULT_VEHTYPE" speedFactor="1.10" vaporized=""/>
    <tripinfo id="f_0_1.23" depart="93.00" departLane="4i_0" departPos="5.10" departSpeed="0.00" departDelay="23.00" arrival="125.00" arrivalLane="3o_0" arrivalPos="489.60" arrivalSpeed="55.00" duration="32.00" routeLength="994.90" waitingTime="0.00" waitingCount="0" stopTime="0.00" timeLoss="13.87" rerouteNo="0" devices="tripinfo_f_0_1.23" vType="DEFAULT_VEHTYPE" speedFactor="1.01" vaporized=""/>
    <tripinfo id="f_0_3.5" depart="95.00" departLane="3i_0" departPos="5.10" departSpeed="0.00" departDelay="6.00" arrival="127.00" arrivalLane="4o_0" arrivalPos="489.60" arrivalSpeed="55.53" duration="32.00" routeLength="994.90" waitingTime="0.00" waitingCount="0" stopTime="0.00" timeLoss="13.48" rerouteNo="0" devices="tripinfo_f_0_3.5" vType="DEFAULT_VEHTYPE" speedFactor="0.99" vaporized=""/>
    <tripinfo id="f_0_1.24" depart="96.00" departLane="4i_0" departPos="5.10" departSpeed="0.00" departDelay="24.00" arrival="129.00" arrivalLane="3o_0" arrivalPos="489.60" arrivalSpeed="54.80" duration="33.00" routeLength="994.90" waitingTime="0.00" waitingCount="0" stopTime="0.00" timeLoss="14.54" rerouteNo="0" devices="tripinfo_f_0_1.24" vType="DEFAULT_VEHTYPE" speedFactor="1.02" vaporized=""/>
    <tripinfo id="f_0_3.6" depart="98.00" departLane="3i_0" departPos="5.10" departSpeed="0.00" departDelay="8.00" arrival="130.00" arrivalLane="4o_0" arrivalPos="489.60" arrivalSpeed="54.98" duration="32.00" routeLength="994.90" waitingTime="0.00" waitingCount="0" stopTime="0.00" timeLoss="13.94" rerouteNo="0" devices="tripinfo_f_0_3.6" vType="DEFAULT_VEHTYPE" speedFactor="0.94" vaporized=""/>
    <tripinfo id="f_0_1.25" depart="99.00" departLane="4i_0" departPos="5.10" departSpeed="0.00" departDelay="26.00" arrival="132.00" arrivalLane="3o_0" arrivalPos="489.60" arrivalSpeed="54.78" duration="33.00" routeLength="994.90" waitingTime="0.00" waitingCount="0" stopTime="0.00" timeLoss="14.39" rerouteNo="0" devices="tripinfo_f_0_1.25" vType="DEFAULT_VEHTYPE" speedFactor="1.15" vaporized=""/>
    <tripinfo id="f_0_3.7" depart="101.00" departLane="3i_0" departPos="5.10" departSpeed="0.00" departDelay="10.00" arrival="132.00" arrivalLane="4o_0" arrivalPos="489.60" arrivalSpeed="55.11" duration="31.00" routeLength="994.90" waitingTime="0.00" waitingCount="0" stopTime="0.00" timeLoss="13.08" rerouteNo="0" devices="tripinfo_f_0_3.7" vType="DEFAULT_VEHTYPE" speedFactor="1.10" vaporized=""/>
    <tripinfo id="f_0_1.26" depart="102.00" departLane="4i_0" departPos="5.10" departSpeed="0.00" departDelay="28.00" arrival="134.00" arrivalLane="3o_0" arrivalPos="489.60" arrivalSpeed="55.28" duration="32.00" routeLength="994.90" waitingTime="0.00" waitingCount="0" stopTime="0.00" timeLoss="13.63" rerouteNo="0" devices="tripinfo_f_0_1.26" vType="DEFAULT_VEHTYPE" speedFactor="0.98" vaporized=""/>
    <tripinfo id="f_0_3.8" depart="104.00" departLane="3i_0" departPos="5.10" departSpeed="0.00" departDelay="12.00" arrival="136.00" arrivalLane="4o_0" arrivalPos="489.60" arrivalSpeed="54.31" duration="32.00" routeLength="994.90" waitingTime="0.00" waitingCount="0" stopTime="0.00" timeLoss="13.26" rerouteNo="0" devices="tripinfo_f_0_3.8" vType="DEFAULT_VEHTYPE" speedFactor="1.06" vaporized=""/>
    <tripinfo id="f_0_1.27" depart="105.00" departLane="4i_0" departPos="5.10" departSpeed="0.00" departDelay="28.00" arrival="138.00" arrivalLane="3o_0" arrivalPos="489.60" arrivalSpeed="55.15" duration="33.00" routeLength="994.90" waitingTime="0.00" waitingCount="0" stopTime="0.00" timeLoss="14.84" rerouteNo="0" devices="tripinfo_f_0_1.27" vType="DEFAULT_VEHTYPE" speedFactor="1.02" vaporized=""/>
    <tripinfo id="f_0_3.9" depart="107.00" departLane="3i_0" departPos="5.10" departSpeed="0.00" departDelay="13.00" arrival="140.00" arrivalLane="4o_0" arrivalPos="489.60" arrivalSpeed="54.78" duration="33.00" routeLength="994.90" waitingTime="0.00" waitingCount="0" stopTime="0.00" timeLoss="14.29" rerouteNo="0" devices="tripinfo_f_0_3.9" vType="DEFAULT_VEHTYPE" speedFactor="1.01" vaporized=""/>
    <tripinfo id="f_0_1.28" depart="108.00" departLane="4i_0" departPos="5.10" departSpeed="0.00" departDelay="28.00" arrival="141.00" arrivalLane="3o_0" arrivalPos="489.60" arrivalSpeed="54.71" duration="33.00" routeLength="994.90" waitingTime="0.00" waitingCount="0" stopTime="0.00" timeLoss="14.58" rerouteNo="0" devices="tripinfo_f_0_1.28" vType="DEFAULT_VEHTYPE" speedFactor="1.01" vaporized=""/>
    <tripinfo id="f_0_3.10" depart="110.00" departLane="3i_0" departPos="5.10" departSpeed="0.00" departDelay="15.00" arrival="141.00" arrivalLane="4o_0" arrivalPos="489.60" arrivalSpeed="55.52" duration="31.00" routeLength="994.90" waitingTime="0.00" waitingCount="0" stopTime="0.00" timeLoss="13.04" rerouteNo="0" devices="tripinfo_f_0_3.10" vType="DEFAULT_VEHTYPE" speedFactor="0.96" vaporized=""/>
    <tripinfo id="f_0_1.29" depart="111.00" departLane="4i_0" departPos="5.10" departSpeed="0.00" departDelay="30.00" arrival="144.00" arrivalLane="3o_0" arrivalPos="489.60" arrivalSpeed="54.69" duration="33.00" routeLength="994.90" waitingTime="0.00" waitingCount="0" stopTime="0.00" timeLoss="14.52" rerouteNo="0" devices="tripinfo_f_0_1.29" vType="DEFAULT_VEHTYPE" speedFactor="1.10" vaporized=""/>
    <tripinfo id="f_0_1.30" depart="114.00" departLane="4i_0" departPos="5.10" departSpeed="0.00" departDelay="32.00" arrival="146.00" arrivalLane="3o_0" arrivalPos="489.60" arrivalSpeed="54.40" duration="32.00" routeLength="994.90" waitingTime="0.00" waitingCount="0" stopTime="0.00" timeLoss="13.99" rerouteNo="0" devices="tripinfo_f_0_1.30" vType="DEFAULT_VEHTYPE" speedFactor="0.97" vaporized=""/>
    <tripinfo id="f_0_3.11" depart="113.00" departLane="3i_0" departPos="5.10" departSpeed="0.00" departDelay="17.00" arrival="146.00" arrivalLane="4o_0" arrivalPos="489.60" arrivalSpeed="55.02" duration="33.00" routeLength="994.90" waitingTime="0.00" waitingCount="0" stopTime="0.00" timeLoss="14.52" rerouteNo="0" devices="tripinfo_f_0_3.11" vType="DEFAULT_VEHTYPE" speedFactor="1.01" vaporized=""/>
    <tripinfo id="f_0_3.12" depart="116.00" departLane="3i_0" departPos="5.10" departSpeed="0.00" departDelay="18.00" arrival="148.00" arrivalLane="4o_0" arrivalPos="489.60" arrivalSpeed="54.30" duration="32.00" routeLength="994.90" waitingTime="0.00" waitingCount="0" stopTime="0.00" timeLoss="13.88" rerouteNo="0" devices="tripinfo_f_0_3.12" vType="DEFAULT_VEHTYPE" speedFactor="0.95" vaporized=""/>
    <tripinfo id="f_0_1.31" depart="117.00" departLane="4i_0" departPos="5.10" departSpeed="0.00" departDelay="34.00" arrival="149.00" arrivalLane="3o_0" arrivalPos="489.60" arrivalSpeed="54.78" duration="32.00" routeLength="994.90" waitingTime="0.00" waitingCount="0" stopTime="0.00" timeLoss="13.81" rerouteNo="0" devices="tripinfo_f_0_1.31" vType="DEFAULT_VEHTYPE" speedFactor="1.07" vaporized=""/>
    <tripinfo id="f_0_3.13" depart="119.00" departLane="3i_0" departPos="5.10" departSpeed="0.00" departDelay="20.00" arrival="150.00" arrivalLane="4o_0" arrivalPos="489.60" arrivalSpeed="54.91" duration="31.00" routeLength="994.90" waitingTime="0.00" waitingCount="0" stopTime="0.00" timeLoss="12.74" rerouteNo="0" devices="tripinfo_f_0_3.13" vType="DEFAULT_VEHTYPE" speedFactor="1.16" vaporized=""/>
    <tripinfo id="f_0_1.32" depart="120.00" departLane="4i_0" departPos="5.10" departSpeed="0.00" departDelay="35.00" arrival="152.00" arrivalLane="3o_0" arrivalPos="489.60" arrivalSpeed="54.46" duration="32.00" routeLength="994.90" waitingTime="0.00" waitingCount="0" stopTime="0.00" timeLoss="13.45" rerouteNo="0" devices="tripinfo_f_0_1.32" vType="DEFAULT_VEHTYPE" speedFactor="0.96" vaporized=""/>
    <tripinfo id="f_0_1.33" depart="123.00" departLane="4i_0" departPos="5.10" departSpeed="0.00" departDelay="36.00" arrival="155.00" arrivalLane="3o_0" arrivalPos="489.60" arrivalSpeed="55.40" duration="32.00" routeLength="994.90" waitingTime="0.00" waitingCount="0" stopTime="0.00" timeLoss="13.97" rerouteNo="0" devices="tripinfo_f_0_1.33" vType="DEFAULT_VEHTYPE" speedFactor="1.01" vaporized=""/>
    <tripinfo id="f_0_1.34" depart="126.00" departLane="4i_0" departPos="5.10" departSpeed="0.00" departDelay="36.00" arrival="157.00" arrivalLane="3o_0" arrivalPos="489.60" arrivalSpeed="54.63" duration="31.00" routeLength="994.90" waitingTime="0.00" waitingCount="0" stopTime="0.00" timeLoss="12.78" rerouteNo="0" devices="tripinfo_f_0_1.34" vType="DEFAULT_VEHTYPE" speedFactor="1.07" vaporized=""/>
    <tripinfo id="f_0_1.35" depart="129.00" departLane="4i_0" departPos="5.10" departSpeed="0.00" departDelay="37.00" arrival="161.00" arrivalLane="3o_0" arrivalPos="489.60" arrivalSpeed="55.03" duration="32.00" routeLength="994.90" waitingTime="0.00" waitingCount="0" stopTime="0.00" timeLoss="13.85" rerouteNo="0" devices="tripinfo_f_0_1.35" vType="DEFAULT_VEHTYPE" speedFactor="1.03" vaporized=""/>
    <tripinfo id="f_0_1.36" depart="132.00" departLane="4i_0" departPos="5.10" departSpeed="0.00" departDelay="39.00" arrival="164.00" arrivalLane="3o_0" arrivalPos="489.60" arrivalSpeed="55.31" duration="32.00" routeLength="994.90" waitingTime="0.00" waitingCount="0" stopTime="0.00" timeLoss="13.31" rerouteNo="0" devices="tripinfo_f_0_1.36" vType="DEFAULT_VEHTYPE" speedFactor="1.03" vaporized=""/>
    <tripinfo id="f_0_1.37" depart="135.00" departLane="4i_0" departPos="5.10" departSpeed="0.00" departDelay="41.00" arrival="168.00" arrivalLane="3o_0" arrivalPos="489.60" arrivalSpeed="54.56" duration="33.00" routeLength="994.90" waitingTime="0.00" waitingCount="0" stopTime="0.00" timeLoss="14.23" rerouteNo="0" devices="tripinfo_f_0_1.37" vType="DEFAULT_VEHTYPE" speedFactor="1.12" vaporized=""/>
    <tripinfo id="f_0_1.38" depart="138.00" departLane="4i_0" departPos="5.10" departSpeed="0.00" departDelay="43.00" arrival="169.00" arrivalLane="3o_0" arrivalPos="489.60" arrivalSpeed="55.54" duration="31.00" routeLength="994.90" waitingTime="0.00" waitingCount="0" stopTime="0.00" timeLoss="12.86" rerouteNo="0" devices="tripinfo_f_0_1.38" vType="DEFAULT_VEHTYPE" speedFactor="1.07" vaporized=""/>
    <tripinfo id="f_0_1.39" depart="140.00" departLane="4i_0" departPos="5.10" departSpeed="0.00" departDelay="44.00" arrival="174.00" arrivalLane="3o_0" arrivalPos="489.60" arrivalSpeed="55.10" duration="34.00" routeLength="994.90" waitingTime="0.00" waitingCount="0" stopTime="0.00" timeLoss="15.16" rerouteNo="0" devices="tripinfo_f_0_1.39" vType="DEFAULT_VEHTYPE" speedFactor="1.23" vaporized=""/>
    <tripinfo id="f_0_1.40" depart="144.00" departLane="4i_0" departPos="5.10" departSpeed="0.00" departDelay="47.00" arrival="176.00" arrivalLane="3o_0" arrivalPos="489.60" arrivalSpeed="55.19" duration="32.00" routeLength="994.90" waitingTime="0.00" waitingCount="0" stopTime="0.00" timeLoss="13.31" rerouteNo="0" devices="tripinfo_f_0_1.40" vType="DEFAULT_VEHTYPE" speedFactor="1.02" vaporized=""/>
    <tripinfo id="f_1_1.0" depart="151.00" departLane="4i_0" departPos="5.10" departSpeed="0.00" departDelay="0.00" arrival="185.00" arrivalLane="3o_0" arrivalPos="489.60" arrivalSpeed="52.85" duration="34.00" routeLength="994.90" waitingTime="0.00" waitingCount="0" stopTime="0.00" timeLoss="14.62" rerouteNo="0" devices="tripinfo_f_1_1.0" vType="DEFAULT_VEHTYPE" speedFactor="0.89" vaporized=""/>
    <tripinfo id="f_1_3.0" depart="150.00" departLane="3i_0" departPos="5.10" departSpeed="0.00" departDelay="0.00" arrival="187.00" arrivalLane="4o_1" arrivalPos="489.60" arrivalSpeed="43.56" duration="37.00" routeLength="994.90" waitingTime="0.00" waitingCount="0" stopTime="0.00" timeLoss="13.63" rerouteNo="0" devices="tripinfo_f_1_3.0" vType="DEFAULT_VEHTYPE" speedFactor="0.73" vaporized=""/>
    <tripinfo id="f_0_0.5" depart="17.00" departLane="1i_0" departPos="5.10" departSpeed="0.00" departDelay="5.00" arrival="188.00" arrivalLane="2o_0" arrivalPos="489.60" arrivalSpeed="44.89" duration="171.00" routeLength="994.90" waitingTime="122.00" waitingCount="1" stopTime="0.00" timeLoss="150.84" rerouteNo="0" devices="tripinfo_f_0_0.5" vType="DEFAULT_VEHTYPE" speedFactor="0.83" vaporized=""/>
    <tripinfo id="f_1_3.1" depart="153.00" departLane="3i_0" departPos="5.10" departSpeed="0.00" departDelay="2.00" arrival="188.00" arrivalLane="4o_1" arrivalPos="489.60" arrivalSpeed="46.36" duration="35.00" routeLength="994.90" waitingTime="0.00" waitingCount="0" stopTime="0.00" timeLoss="16.83" rerouteNo="0" devices="tripinfo_f_1_3.1" vType="DEFAULT_VEHTYPE" speedFactor="1.00" vaporized=""/>
    <tripinfo id="f_0_2.1" depart="43.00" departLane="2i_0" departPos="5.10" departSpeed="0.00" departDelay="1.00" arrival="189.00" arrivalLane="1o_1" arrivalPos="489.60" arrivalSpeed="45.45" duration="146.00" routeLength="994.90" waitingTime="95.00" waitingCount="1" stopTime="0.00" timeLoss="127.58" rerouteNo="0" devices="tripinfo_f_0_2.1" vType="DEFAULT_VEHTYPE" speedFactor="1.02" vaporized=""/>
    <tripinfo id="f_1_1.1" depart="157.00" departLane="4i_0" departPos="5.10" departSpeed="0.00" departDelay="0.00" arrival="189.00" arrivalLane="3o_0" arrivalPos="489.60" arrivalSpeed="55.12" duration="32.00" routeLength="994.90" waitingTime="0.00" waitingCount="0" stopTime="0.00" timeLoss="13.97" rerouteNo="0" devices="tripinfo_f_1_1.1" vType="DEFAULT_VEHTYPE" speedFactor="1.12" vaporized=""/>
    <tripinfo id="f_0_0.6" depart="20.00" departLane="1i_0" departPos="5.10" departSpeed="0.00" departDelay="7.00" arrival="190.00" arrivalLane="2o_0" arrivalPos="489.60" arrivalSpeed="43.90" duration="170.00" routeLength="994.90" waitingTime="117.00" waitingCount="1" stopTime="0.00" timeLoss="151.95" rerouteNo="0" devices="tripinfo_f_0_0.6" vType="DEFAULT_VEHTYPE" speedFactor="1.05" vaporized=""/>
    <tripinfo id="f_0_2.0" depart="40.00" departLane="2i_0" departPos="5.10" departSpeed="0.00" departDelay="0.00" arrival="190.00" arrivalLane="1o_0" arrivalPos="489.60" arrivalSpeed="43.57" duration="150.00" routeLength="994.90" waitingTime="99.00" waitingCount="1" stopTime="0.00" timeLoss="131.34" rerouteNo="0" devices="tripinfo_f_0_2.0" vType="DEFAULT_VEHTYPE" speedFactor="1.15" vaporized=""/>
    <tripinfo id="f_1_3.2" depart="156.00" departLane="3i_0" departPos="5.10" departSpeed="0.00" departDelay="4.00" arrival="190.00" arrivalLane="4o_0" arrivalPos="489.60" arrivalSpeed="50.35" duration="34.00" routeLength="994.90" waitingTime="0.00" waitingCount="0" stopTime="0.00" timeLoss="15.35" rerouteNo="0" devices="tripinfo_f_1_3.2" vType="DEFAULT_VEHTYPE" speedFactor="0.97" vaporized=""/>
    <tripinfo id="f_1_3.3" depart="159.00" departLane="3i_0" departPos="5.10" departSpeed="0.00" departDelay="6.00" arrival="191.00" arrivalLane="4o_0" arrivalPos="489.60" arrivalSpeed="50.97" duration="32.00" routeLength="994.90" waitingTime="0.00" waitingCount="0" stopTime="0.00" timeLoss="13.79" rerouteNo="0" devices="tripinfo_f_1_3.3" vType="DEFAULT_VEHTYPE" speedFactor="0.96" vaporized=""/>
    <tripinfo id="f_1_1.2" depart="160.00" departLane="4i_0" departPos="5.10" departSpeed="0.00" departDelay="2.00" arrival="191.00" arrivalLane="3o_0" arrivalPos="489.60" arrivalSpeed="55.26" duration="31.00" routeLength="994.90" waitingTime="0.00" waitingCount="0" stopTime="0.00" timeLoss="13.05" rerouteNo="0" devices="tripinfo_f_1_1.2" vType="DEFAULT_VEHTYPE" speedFactor="1.18" vaporized=""/>
    <tripinfo id="f_1_3.4" depart="162.00" departLane="3i_0" departPos="5.10" departSpeed="0.00" departDelay="7.00" arrival="193.00" arrivalLane="4o_0" arrivalPos="489.60" arrivalSpeed="55.30" duration="31.00" routeLength="994.90" waitingTime="0.00" waitingCount="0" stopTime="0.00" timeLoss="12.95" rerouteNo="0" devices="tripinfo_f_1_3.4" vType="DEFAULT_VEHTYPE" speedFactor="0.93" vaporized=""/>