<?xml version="1.0" encoding="UTF-8"?>

<!-- generated on 2024-07-23 16:45:39 by Eclipse SUMO sumo Version 1.17.0
<configuration xmlns:xsi="http://www.w3.org/2001/XMLSchema-instance" xsi:noNamespaceSchemaLocation="http://sumo.dlr.de/xsd/sumoConfiguration.xsd">

    <input>
        <net-file value="triple_actuated.net.xml"/>
        <route-files value="triple_1.rou.xml"/>
    </input>

    <output>
        <summary-output value="control_summaries//summary_triple_actuated_1.xml"/>
        <tripinfo-output value="control_summaries//tripinfos_triple_actuated_1.xml"/>
    </output>

    <processing>
        <time-to-teleport value="-1"/>
    </processing>

    <traci_server>
        <remote-port value="57832"/>
    </traci_server>

</configuration>
-->

<tripinfos xmlns:xsi="http://www.w3.org/2001/XMLSchema-instance" xsi:noNamespaceSchemaLocation="http://sumo.dlr.de/xsd/tripinfo_file.xsd">
    <tripinfo id="f_0_10.0" depart="0.00" departLane="C4C3_0" departPos="5.10" departSpeed="0.00" departDelay="0.00" arrival="119.00" arrivalLane="C2C1_0" arrivalPos="491.30" arrivalSpeed="13.63" duration="119.00" routeLength="1493.50" waitingTime="3.00" waitingCount="1" stopTime="0.00" timeLoss="16.73" rerouteNo="0" devices="tripinfo_f_0_10.0" vType="DEFAULT_VEHTYPE" speedFactor="1.06" vaporized=""/>
    <tripinfo id="f_0_11.0" depart="1.00" departLane="C0C1_0" departPos="5.10" departSpeed="0.00" departDelay="0.00" arrival="119.00" arrivalLane="C2C3_0" arrivalPos="492.80" arrivalSpeed="12.86" duration="118.00" routeLength="1494.90" waitingTime="0.00" waitingCount="0" stopTime="0.00" timeLoss="11.45" rerouteNo="0" devices="tripinfo_f_0_11.0" vType="DEFAULT_VEHTYPE" speedFactor="1.01" vaporized=""/>
    <tripinfo id="f_0_10.1" depart="2.00" departLane="C4C3_0" departPos="5.10" departSpeed="0.00" departDelay="0.00" arrival="120.00" arrivalLane="C2C1_0" arrivalPos="491.30" arrivalSpeed="14.36" duration="118.00" routeLength="1493.50" waitingTime="2.00" waitingCount="1" stopTime="0.00" timeLoss="18.52" rerouteNo="0" devices="tripinfo_f_0_10.1" vType="DEFAULT_VEHTYPE" speedFactor="1.08" vaporized=""/>
    <tripinfo id="f_0_11.1" depart="4.00" departLane="C0C1_0" departPos="5.10" departSpeed="0.00" departDelay="1.00" arrival="121.00" arrivalLane="C2C3_0" arrivalPos="492.80" arrivalSpeed="13.23" duration="117.00" routeLength="1494.90" waitingTime="0.00" waitingCount="0" stopTime="0.00" timeLoss="12.23" rerouteNo="0" devices="tripinfo_f_0_11.1" vType="DEFAULT_VEHTYPE" speedFactor="1.03" vaporized=""/>
    <tripinfo id="f_0_11.2" depart="8.00" departLane="C0C1_0" departPos="5.10" departSpeed="0.00" departDelay="0.00" arrival="123.00" arrivalLane="C2C3_0" arrivalPos="492.80" arrivalSpeed="14.19" duration="115.00" routeLength="1494.90" waitingTime="0.00" waitingCount="0" stopTime="0.00" timeLoss="15.66" rerouteNo="0" devices="tripinfo_f_0_11.2" vType="DEFAULT_VEHTYPE" speedFactor="1.09" vaporized=""/>
    <tripinfo id="f_0_11.3" depart="11.00" departLane="C0C1_0" departPos="5.10" departSpeed="0.00" departDelay="2.00" arrival="125.00" arrivalLane="C2C3_0" arrivalPos="492.80" arrivalSpeed="14.20" duration="114.00" routeLength="1494.90" waitingTime="0.00" waitingCount="0" stopTime="0.00" timeLoss="10.29" rerouteNo="0" devices="tripinfo_f_0_11.3" vType="DEFAULT_VEHTYPE" speedFactor="1.05" vaporized=""/>
    <tripinfo id="f_0_10.2" depart="7.00" departLane="C4C3_0" departPos="5.10" departSpeed="0.00" departDelay="0.00" arrival="130.00" arrivalLane="C2C1_0" arrivalPos="491.30" arrivalSpeed="12.80" duration="123.00" routeLength="1493.50" waitingTime="0.00" waitingCount="0" stopTime="0.00" timeLoss="7.93" rerouteNo="0" devices="tripinfo_f_0_10.2" vType="DEFAULT_VEHTYPE" speedFactor="0.94" vaporized=""/>
    <tripinfo id="f_0_10.3" depart="10.00" departLane="C4C3_0" departPos="5.10" departSpeed="0.00" departDelay="1.00" arrival="132.00" arrivalLane="C2C1_0" arrivalPos="491.30" arrivalSpeed="14.23" duration="122.00" routeLength="1493.50" waitingTime="0.00" waitingCount="0" stopTime="0.00" timeLoss="16.43" rerouteNo="0" devices="tripinfo_f_0_10.3" vType="DEFAULT_VEHTYPE" speedFactor="1.03" vaporized=""/>
    <tripinfo id="f_0_11.4" depart="14.00" departLane="C0C1_0" departPos="5.10" departSpeed="0.00" departDelay="4.00" arrival="132.00" arrivalLane="C2C3_0" arrivalPos="492.80" arrivalSpeed="13.39" duration="118.00" routeLength="1494.90" waitingTime="0.00" waitingCount="0" stopTime="0.00" timeLoss="8.57" rerouteNo="0" devices="tripinfo_f_0_11.4" vType="DEFAULT_VEHTYPE" speedFactor="0.99" vaporized=""/>
    <tripinfo id="f_0_10.4" depart="13.00" departLane="C4C3_0" departPos="5.10" departSpeed="0.00" departDelay="3.00" arrival="133.00" arrivalLane="C2C1_0" arrivalPos="491.30" arrivalSpeed="15.23" duration="120.00" routeLength="1493.50" waitingTime="0.00" waitingCount="0" stopTime="0.00" timeLoss="24.00" rerouteNo="0" devices="tripinfo_f_0_10.4" vType="DEFAULT_VEHTYPE" speedFactor="1.12" vaporized=""/>
    <tripinfo id="f_0_11.5" depart="17.00" departLane="C0C1_0" departPos="5.10" departSpeed="0.00" departDelay="2.00" arrival="133.00" arrivalLane="C2C3_0" arrivalPos="492.80" arrivalSpeed="13.19" duration="116.00" routeLength="1494.90" waitingTime="0.00" waitingCount="0" stopTime="0.00" timeLoss="9.36" rerouteNo="0" devices="tripinfo_f_0_11.5" vType="DEFAULT_VEHTYPE" speedFactor="1.01" vaporized=""/>
    <tripinfo id="f_0_12.0" depart="27.00" departLane="D4D3_0" departPos="5.10" departSpeed="0.00" departDelay="0.00" arrival="141.00" arrivalLane="D2D1_0" arrivalPos="491.30" arrivalSpeed="13.97" duration="114.00" routeLength="1493.50" waitingTime="0.00" waitingCount="0" stopTime="0.00" timeLoss="9.64" rerouteNo="0" devices="tripinfo_f_0_12.0" vType="DEFAULT_VEHTYPE" speedFactor="1.03" vaporized=""/>
    <tripinfo id="f_0_13.0" depart="24.00" departLane="D0D1_0" departPos="5.10" departSpeed="0.00" departDelay="0.00" arrival="144.00" arrivalLane="D2D3_0" arrivalPos="492.80" arrivalSpeed="13.59" duration="120.00" routeLength="1494.90" waitingTime="1.00" waitingCount="1" stopTime="0.00" timeLoss="13.88" rerouteNo="0" devices="tripinfo_f_0_13.0" vType="DEFAULT_VEHTYPE" speedFactor="1.02" vaporized=""/>
    <tripinfo id="f_0_13.1" depart="27.00" departLane="D0D1_0" departPos="5.10" departSpeed="0.00" departDelay="2.00" arrival="146.00" arrivalLane="D2D3_0" arrivalPos="492.80" arrivalSpeed="15.36" duration="119.00" routeLength="1494.90" waitingTime="0.00" waitingCount="0" stopTime="0.00" timeLoss="26.90" rerouteNo="0" devices="tripinfo_f_0_13.1" vType="DEFAULT_VEHTYPE" speedFactor="1.18" vaporized=""/>
    <tripinfo id="f_0_11.6" depart="20.00" departLane="C0C1_0" departPos="5.10" departSpeed="0.00" departDelay="4.00" arrival="154.00" arrivalLane="C2C3_0" arrivalPos="492.80" arrivalSpeed="11.52" duration="134.00" routeLength="1494.90" waitingTime="0.00" waitingCount="0" stopTime="0.00" timeLoss="12.28" rerouteNo="0" devices="tripinfo_f_0_11.6" vType="DEFAULT_VEHTYPE" speedFactor="0.89" vaporized=""/>
    <tripinfo id="f_0_10.5" depart="16.00" departLane="C4C3_0" departPos="5.10" departSpeed="0.00" departDelay="5.00" arrival="155.00" arrivalLane="C2C1_0" arrivalPos="491.30" arrivalSpeed="11.00" duration="139.00" routeLength="1493.50" waitingTime="1.00" waitingCount="1" stopTime="0.00" timeLoss="16.49" rerouteNo="0" devices="tripinfo_f_0_10.5" vType="DEFAULT_VEHTYPE" speedFactor="0.88" vaporized=""/>
    <tripinfo id="f_0_11.7" depart="23.00" departLane="C0C1_0" departPos="5.10" departSpeed="0.00" departDelay="5.00" arrival="155.00" arrivalLane="C2C3_0" arrivalPos="492.80" arrivalSpeed="12.67" duration="132.00" routeLength="1494.90" waitingTime="0.00" waitingCount="0" stopTime="0.00" timeLoss="18.53" rerouteNo="0" devices="tripinfo_f_0_11.7" vType="DEFAULT_VEHTYPE" speedFactor="0.95" vaporized=""/>
    <tripinfo id="f_0_10.6" depart="19.00" departLane="C4C3_0" departPos="5.10" departSpeed="0.00" departDelay="5.00" arrival="157.00" arrivalLane="C2C1_0" arrivalPos="491.30" arrivalSpeed="12.87" duration="138.00" routeLength="1493.50" waitingTime="1.00" waitingCount="1" stopTime="0.00" timeLoss="22.69" rerouteNo="0" devices="tripinfo_f_0_10.6" vType="DEFAULT_VEHTYPE" speedFactor="0.94" vaporized=""/>
    <tripinfo id="f_0_11.8" depart="26.00" departLane="C0C1_0" departPos="5.10" departSpeed="0.00" departDelay="1.00" arrival="157.00" arrivalLane="C2C3_0" arrivalPos="492.80" arrivalSpeed="13.20" duration="131.00" routeLength="1494.90" waitingTime="0.00" waitingCount="0" stopTime="0.00" timeLoss="20.13" rerouteNo="0" devices="tripinfo_f_0_11.8" vType="DEFAULT_VEHTYPE" speedFactor="0.97" vaporized=""/>
    <tripinfo id="f_0_10.7" depart="22.00" departLane="C4C3_0" departPos="5.10" departSpeed="0.00" departDelay="7.00" arrival="159.00" arrivalLane="C2C1_0" arrivalPos="491.30" arrivalSpeed="13.77" duration="137.00" routeLength="1493.50" waitingTime="0.00" waitingCount="0" stopTime="0.00" timeLoss="30.58" rerouteNo="0" devices="tripinfo_f_0_10.7" vType="DEFAULT_VEHTYPE" speedFactor="1.02" vaporized=""/>
    <tripinfo id="f_0_11.9" depart="29.00" departLane="C0C1_0" departPos="5.10" departSpeed="0.00" departDelay="0.00" arrival="159.00" arrivalLane="C2C3_0" arrivalPos="492.80" arrivalSpeed="15.00" duration="130.00" routeLength="1494.90" waitingTime="0.00" waitingCount="0" stopTime="0.00" timeLoss="30.76" rerouteNo="0" devices="tripinfo_f_0_11.9" vType="DEFAULT_VEHTYPE" speedFactor="1.09" vaporized=""/>
    <tripinfo id="f_0_10.8" depart="25.00" departLane="C4C3_0" departPos="5.10" departSpeed="0.00" departDelay="7.00" arrival="161.00" arrivalLane="C2C1_0" arrivalPos="491.30" arrivalSpeed="11.46" duration="136.00" routeLength="1493.50" waitingTime="0.00" waitingCount="0" stopTime="0.00" timeLoss="17.99" rerouteNo="0" devices="tripinfo_f_0_10.8" vType="DEFAULT_VEHTYPE" speedFactor="0.92" vaporized=""/>
    <tripinfo id="f_0_11.10" depart="32.00" departLane="C0C1_0" departPos="5.10" departSpeed="0.00" departDelay="2.00" arrival="161.00" arrivalLane="C2C3_0" arrivalPos="492.80" arrivalSpeed="13.25" duration="129.00" routeLength="1494.90" waitingTime="0.00" waitingCount="0" stopTime="0.00" timeLoss="24.49" rerouteNo="0" devices="tripinfo_f_0_11.10" vType="DEFAULT_VEHTYPE" speedFactor="1.04" vaporized=""/>
    <tripinfo id="f_0_10.9" depart="28.00" departLane="C4C3_0" departPos="5.10" departSpeed="0.00" departDelay="6.00" arrival="162.00" arrivalLane="C2C1_0" arrivalPos="491.30" arrivalSpeed="14.83" duration="134.00" routeLength="1493.50" waitingTime="0.00" waitingCount="0" stopTime="0.00" timeLoss="41.95" rerouteNo="0" devices="tripinfo_f_0_10.9" vType="DEFAULT_VEHTYPE" speedFactor="1.17" vaporized=""/>
    <tripinfo id="f_0_12.1" depart="30.00" departLane="D4D3_0" departPos="5.10" departSpeed="0.00" departDelay="2.00" arrival="162.00" arrivalLane="D2D1_0" arrivalPos="491.30" arrivalSpeed="13.10" duration="132.00" routeLength="1493.50" waitingTime="6.00" waitingCount="1" stopTime="0.00" timeLoss="19.50" rerouteNo="0" devices="tripinfo_f_0_12.1" vType="DEFAULT_VEHTYPE" speedFactor="0.96" vaporized=""/>
    <tripinfo id="f_0_10.10" depart="31.00" departLane="C4C3_0" departPos="5.10" departSpeed="0.00" departDelay="0.00" arrival="164.00" arrivalLane="C2C1_0" arrivalPos="491.30" arrivalSpeed="13.84" duration="133.00" routeLength="1493.50" waitingTime="0.00" waitingCount="0" stopTime="0.00" timeLoss="29.40" rerouteNo="0" devices="tripinfo_f_0_10.10" vType="DEFAULT_VEHTYPE" speedFactor="1.04" vaporized=""/>
    <tripinfo id="f_0_12.2" depart="33.00" departLane="D4D3_0" departPos="5.10" departSpeed="0.00" departDelay="1.00" arrival="164.00" arrivalLane="D2D1_0" arrivalPos="491.30" arrivalSpeed="12.66" duration="131.00" routeLength="1493.50" waitingTime="5.00" waitingCount="1" stopTime="0.00" timeLoss="22.81" rerouteNo="0" devices="tripinfo_f_0_12.2" vType="DEFAULT_VEHTYPE" speedFactor="1.00" vaporized=""/>
    <tripinfo id="f_0_13.2" depart="30.00" departLane="D0D1_0" departPos="5.10" departSpeed="0.00" departDelay="4.00" arrival="165.00" arrivalLane="D2D3_0" arrivalPos="492.80" arrivalSpeed="11.71" duration="135.00" routeLength="1494.90" waitingTime="1.00" waitingCount="1" stopTime="0.00" timeLoss="14.82" rerouteNo="0" devices="tripinfo_f_0_13.2" vType="DEFAULT_VEHTYPE" speedFactor="0.90" vaporized=""/>
    <tripinfo id="f_0_10.11" depart="34.00" departLane="C4C3_0" departPos="5.10" departSpeed="0.00" departDelay="1.00" arrival="166.00" arrivalLane="C2C1_0" arrivalPos="491.30" arrivalSpeed="12.21" duration="132.00" routeLength="1493.50" waitingTime="0.00" waitingCount="0" stopTime="0.00" timeLoss="12.11" rerouteNo="0" devices="tripinfo_f_0_10.11" vType="DEFAULT_VEHTYPE" speedFactor="0.90" vaporized=""/>
    <tripinfo id="f_0_13.3" depart="36.00" departLane="D0D1_0" departPos="5.10" departSpeed="0.00" departDelay="0.00" arrival="166.00" arrivalLane="D2D3_0" arrivalPos="492.80" arrivalSpeed="14.54" duration="130.00" routeLength="1494.90" waitingTime="0.00" waitingCount="0" stopTime="0.00" timeLoss="37.81" rerouteNo="0" devices="tripinfo_f_0_13.3" vType="DEFAULT_VEHTYPE" speedFactor="1.17" vaporized=""/>
    <tripinfo id="f_0_12.3" depart="37.00" departLane="D4D3_0" departPos="5.10" departSpeed="0.00" departDelay="0.00" arrival="166.00" arrivalLane="D2D1_0" arrivalPos="491.30" arrivalSpeed="12.97" duration="129.00" routeLength="1493.50" waitingTime="4.00" waitingCount="1" stopTime="0.00" timeLoss="20.41" rerouteNo="0" devices="tripinfo_f_0_12.3" vType="DEFAULT_VEHTYPE" speedFactor="1.00" vaporized=""/>
    <tripinfo id="f_0_12.4" depart="45.00" departLane="D4D3_0" departPos="5.10" departSpeed="0.00" departDelay="0.00" arrival="168.00" arrivalLane="D2D1_0" arrivalPos="491.30" arrivalSpeed="12.89" duration="123.00" routeLength="1493.50" waitingTime="0.00" waitingCount="0" stopTime="0.00" timeLoss="12.59" rerouteNo="0" devices="tripinfo_f_0_12.4" vType="DEFAULT_VEHTYPE" speedFactor="0.98" vaporized=""/>
    <tripinfo id="f_0_13.4" depart="39.00" departLane="D0D1_0" departPos="5.10" departSpeed="0.00" departDelay="2.00" arrival="169.00" arrivalLane="D2D3_0" arrivalPos="492.80" arrivalSpeed="11.90" duration="130.00" routeLength="1494.90" waitingTime="0.00" waitingCount="0" stopTime="0.00" timeLoss="10.11" rerouteNo="0" devices="tripinfo_f_0_13.4" vType="DEFAULT_VEHTYPE" speedFactor="0.90" vaporized=""/>
    <tripinfo id="f_0_15.0" depart="40.00" departLane="E0E1_0" departPos="5.10" departSpeed="0.00" departDelay="0.00" arrival="169.00" arrivalLane="E2E3_0" arrivalPos="492.80" arrivalSpeed="13.29" duration="129.00" routeLength="1494.90" waitingTime="6.00" waitingCount="1" stopTime="0.00" timeLoss="19.91" rerouteNo="0" devices="tripinfo_f_0_15.0" vType="DEFAULT_VEHTYPE" speedFactor="0.99" vaporized=""/>
    <tripinfo id="f_0_12.5" depart="56.00" departLane="D4D3_0" departPos="5.10" departSpeed="0.00" departDelay="0.00" arrival="169.00" arrivalLane="D2D1_0" arrivalPos="491.30" arrivalSpeed="15.26" duration="113.00" routeLength="1493.50" waitingTime="0.00" waitingCount="0" stopTime="0.00" timeLoss="16.78" rerouteNo="0" devices="tripinfo_f_0_12.5" vType="DEFAULT_VEHTYPE" speedFactor="1.12" vaporized=""/>
    <tripinfo id="f_0_13.5" depart="42.00" departLane="D0D1_0" departPos="5.10" departSpeed="0.00" departDelay="4.00" arrival="171.00" arrivalLane="D2D3_0" arrivalPos="492.80" arrivalSpeed="14.19" duration="129.00" routeLength="1494.90" waitingTime="0.00" waitingCount="0" stopTime="0.00" timeLoss="23.27" rerouteNo="0" devices="tripinfo_f_0_13.5" vType="DEFAULT_VEHTYPE" speedFactor="1.02" vaporized=""/>
    <tripinfo id="f_0_15.1" depart="43.00" departLane="E0E1_0" departPos="5.10" departSpeed="0.00" departDelay="1.00" arrival="171.00" arrivalLane="E2E3_0" arrivalPos="492.80" arrivalSpeed="13.98" duration="128.00" routeLength="1494.90" waitingTime="4.00" waitingCount="1" stopTime="0.00" timeLoss="22.34" rerouteNo="0" devices="tripinfo_f_0_15.1" vType="DEFAULT_VEHTYPE" speedFactor="1.02" vaporized=""/>
    <tripinfo id="f_0_14.0" depart="43.00" departLane="E4E3_0" departPos="5.10" departSpeed="0.00" departDelay="0.00" arrival="171.00" arrivalLane="E2E1_0" arrivalPos="491.30" arrivalSpeed="12.95" duration="128.00" routeLength="1493.50" waitingTime="0.00" waitingCount="0" stopTime="0.00" timeLoss="12.74" rerouteNo="0" devices="tripinfo_f_0_14.0" vType="DEFAULT_VEHTYPE" speedFactor="0.94" vaporized=""/>
    <tripinfo id="f_0_12.6" depart="59.00" departLane="D4D3_0" departPos="5.10" departSpeed="0.00" departDelay="0.00" arrival="171.00" arrivalLane="D2D1_0" arrivalPos="491.30" arrivalSpeed="13.81" duration="112.00" routeLength="1493.50" waitingTime="0.00" waitingCount="0" stopTime="0.00" timeLoss="11.10" rerouteNo="0" devices="tripinfo_f_0_12.6" vType="DEFAULT_VEHTYPE" speedFactor="1.07" vaporized=""/>
    <tripinfo id="f_0_14.1" depart="47.00" departLane="E4E3_0" departPos="5.10" departSpeed="0.00" departDelay="0.00" arrival="172.00" arrivalLane="E2E1_0" arrivalPos="491.30" arrivalSpeed="13.16" duration="125.00" routeLength="1493.50" waitingTime="0.00" waitingCount="0" stopTime="0.00" timeLoss="19.12" rerouteNo="0" devices="tripinfo_f_0_14.1" vType="DEFAULT_VEHTYPE" speedFactor="1.02" vaporized=""/>
    <tripinfo id="f_0_13.6" depart="45.00" departLane="D0D1_0" departPos="5.10" departSpeed="0.00" departDelay="3.00" arrival="173.00" arrivalLane="D2D3_0" arrivalPos="492.80" arrivalSpeed="14.40" duration="128.00" routeLength="1494.90" waitingTime="0.00" waitingCount="0" stopTime="0.00" timeLoss="23.78" rerouteNo="0" devices="tripinfo_f_0_13.6" vType="DEFAULT_VEHTYPE" speedFactor="1.04" vaporized=""/>
    <tripinfo id="f_0_15.2" depart="46.00" departLane="E0E1_0" departPos="5.10" departSpeed="0.00" departDelay="1.00" arrival="173.00" arrivalLane="E2E3_0" arrivalPos="492.80" arrivalSpeed="14.89" duration="127.00" routeLength="1494.90" waitingTime="4.00" waitingCount="1" stopTime="0.00" timeLoss="27.26" rerouteNo="0" devices="tripinfo_f_0_15.2" vType="DEFAULT_VEHTYPE" speedFactor="1.09" vaporized=""/>
    <tripinfo id="f_0_13.7" depart="48.00" departLane="D0D1_0" departPos="5.10" departSpeed="0.00" departDelay="5.00" arrival="174.00" arrivalLane="D2D3_0" arrivalPos="492.80" arrivalSpeed="13.37" duration="126.00" routeLength="1494.90" waitingTime="0.00" waitingCount="0" stopTime="0.00" timeLoss="15.38" rerouteNo="0" devices="tripinfo_f_0_13.7" vType="DEFAULT_VEHTYPE" speedFactor="0.97" vaporized=""/>
    <tripinfo id="f_0_14.2" depart="50.00" departLane="E4E3_0" departPos="5.10" departSpeed="0.00" departDelay="0.00" arrival="174.00" arrivalLane="E2E1_0" arrivalPos="491.30" arrivalSpeed="14.02" duration="124.00" routeLength="1493.50" waitingTime="0.00" waitingCount="0" stopTime="0.00" timeLoss="18.40" rerouteNo="0" devices="tripinfo_f_0_14.2" vType="DEFAULT_VEHTYPE" speedFactor="1.02" vaporized=""/>
    <tripinfo id="f_0_12.7" depart="62.00" departLane="D4D3_0" departPos="5.10" departSpeed="0.00" departDelay="2.00" arrival="174.00" arrivalLane="D2D1_0" arrivalPos="491.30" arrivalSpeed="14.14" duration="112.00" routeLength="1493.50" waitingTime="0.00" waitingCount="0" stopTime="0.00" timeLoss="7.81" rerouteNo="0" devices="tripinfo_f_0_12.7" vType="DEFAULT_VEHTYPE" speedFactor="1.03" vaporized=""/>
    <tripinfo id="f_0_13.8" depart="51.00" departLane="D0D1_0" departPos="5.10" departSpeed="0.00" departDelay="6.00" arrival="176.00" arrivalLane="D2D3_0" arrivalPos="492.80" arrivalSpeed="13.05" duration="125.00" routeLength="1494.90" waitingTime="0.00" waitingCount="0" stopTime="0.00" timeLoss="17.99" rerouteNo="0" devices="tripinfo_f_0_13.8" vType="DEFAULT_VEHTYPE" speedFactor="1.01" vaporized=""/>
    <tripinfo id="f_0_15.3" depart="49.00" departLane="E0E1_0" departPos="5.10" departSpeed="0.00" departDelay="2.00" arrival="176.00" arrivalLane="E2E3_0" arrivalPos="492.80" arrivalSpeed="13.24" duration="127.00" routeLength="1494.90" waitingTime="1.00" waitingCount="1" stopTime="0.00" timeLoss="15.59" rerouteNo="0" devices="tripinfo_f_0_15.3" vType="DEFAULT_VEHTYPE" speedFactor="0.97" vaporized=""/>
    <tripinfo id="f_0_15.4" depart="52.00" departLane="E0E1_0" departPos="5.10" departSpeed="0.00" departDelay="4.00" arrival="178.00" arrivalLane="E2E3_0" arrivalPos="492.80" arrivalSpeed="13.51" duration="126.00" routeLength="1494.90" waitingTime="0.00" waitingCount="0" stopTime="0.00" timeLoss="18.23" rerouteNo="0" devices="tripinfo_f_0_15.4" vType="DEFAULT_VEHTYPE" speedFactor="1.00" vaporized=""/>
    <tripinfo id="f_0_13.9" depart="54.00" departLane="D0D1_0" departPos="5.10" departSpeed="0.00" departDelay="3.00" arrival="178.00" arrivalLane="D2D3_0" arrivalPos="492.80" arrivalSpeed="13.38" duration="124.00" routeLength="1494.90" waitingTime="0.00" waitingCount="0" stopTime="0.00" timeLoss="17.69" rerouteNo="0" devices="tripinfo_f_0_13.9" vType="DEFAULT_VEHTYPE" speedFactor="1.02" vaporized=""/>
    <tripinfo id="f_0_13.10" depart="58.00" departLane="D0D1_0" departPos="5.10" departSpeed="0.00" departDelay="0.00" arrival="180.00" arrivalLane="D2D3_0" arrivalPos="492.80" arrivalSpeed="12.89" duration="122.00" routeLength="1494.90" waitingTime="0.00" waitingCount="0" stopTime="0.00" timeLoss="8.92" rerouteNo="0" devices="tripinfo_f_0_13.10" vType="DEFAULT_VEHTYPE" speedFactor="0.96" vaporized=""/>
    <tripinfo id="f_0_13.11" depart="61.00" departLane="D0D1_0" departPos="5.10" departSpeed="0.00" departDelay="2.00" arrival="182.00" arrivalLane="D2D3_0" arrivalPos="492.80" arrivalSpeed="13.62" duration="121.00" routeLength="1494.90" waitingTime="0.00" waitingCount="0" stopTime="0.00" timeLoss="14.08" rerouteNo="0" devices="tripinfo_f_0_13.11" vType="DEFAULT_VEHTYPE" speedFactor="1.01" vaporized=""/>
    <tripinfo id="f_0_11.11" depart="36.00" departLane="C0C1_0" departPos="5.10" departSpeed="0.00" departDelay="0.00" arrival="183.00" arrivalLane="C2C3_0" arrivalPos="492.80" arrivalSpeed="11.32" duration="147.00" routeLength="1494.90" waitingTime="5.00" waitingCount="1" stopTime="0.00" timeLoss="20.89" rerouteNo="0" devices="tripinfo_f_0_11.11" vType="DEFAULT_VEHTYPE" speedFactor="0.85" vaporized=""/>
    <tripinfo id="f_0_10.12" depart="37.00" departLane="C4C3_0" departPos="5.10" departSpeed="0.00" departDelay="2.00" arrival="184.00" arrivalLane="C2C1_0" arrivalPos="491.30" arrivalSpeed="11.28" duration="147.00" routeLength="1493.50" waitingTime="2.00" waitingCount="1" stopTime="0.00" timeLoss="19.72" rerouteNo="0" devices="tripinfo_f_0_10.12" vType="DEFAULT_VEHTYPE" speedFactor="0.85" vaporized=""/>
    <tripinfo id="f_0_10.13" depart="40.00" departLane="C4C3_0" departPos="5.10" departSpeed="0.00" departDelay="3.00" arrival="185.00" arrivalLane="C2C1_0" arrivalPos="491.30" arrivalSpeed="12.31" duration="145.00" routeLength="1493.50" waitingTime="1.00" waitingCount="1" stopTime="0.00" timeLoss="46.77" rerouteNo="0" devices="tripinfo_f_0_10.13" vType="DEFAULT_VEHTYPE" speedFactor="1.10" vaporized=""/>
    <tripinfo id="f_0_11.12" depart="39.00" departLane="C0C1_0" departPos="5.10" departSpeed="0.00" departDelay="2.00" arrival="185.00" arrivalLane="C2C3_0" arrivalPos="492.80" arrivalSpeed="13.72" duration="146.00" routeLength="1494.90" waitingTime="4.00" waitingCount="1" stopTime="0.00" timeLoss="38.15" rerouteNo="0" devices="tripinfo_f_0_11.12" vType="DEFAULT_VEHTYPE" speedFactor="1.00" vaporized=""/>
    <tripinfo id="f_0_10.14" depart="43.00" departLane="C4C3_0" departPos="5.10" departSpeed="0.00" departDelay="5.00" arrival="187.00" arrivalLane="C2C1_0" arrivalPos="491.30" arrivalSpeed="14.41" duration="144.00" routeLength="1493.50" waitingTime="1.00" waitingCount="1" stopTime="0.00" timeLoss="49.55" rerouteNo="0" devices="tripinfo_f_0_10.14" vType="DEFAULT_VEHTYPE" speedFactor="1.14" vaporized=""/>
    <tripinfo id="f_0_11.13" depart="42.00" departLane="C0C1_0" departPos="5.10" departSpeed="0.00" departDelay="2.00" arrival="187.00" arrivalLane="C2C3_0" arrivalPos="492.80" arrivalSpeed="13.94" duration="145.00" routeLength="1494.90" waitingTime="4.00" waitingCount="1" stopTime="0.00" timeLoss="38.23" rerouteNo="0" devices="tripinfo_f_0_11.13" vType="DEFAULT_VEHTYPE" speedFactor="1.02" vaporized=""/>
    <tripinfo id="f_0_10.15" depart="46.00" departLane="C4C3_0" departPos="5.10" departSpeed="0.00" departDelay="7.00" arrival="189.00" arrivalLane="C2C1_0" arrivalPos="491.30" arrivalSpeed="14.65" duration="143.00" routeLength="1493.50" waitingTime="0.00" waitingCount="0" stopTime="0.00" timeLoss="43.02" rerouteNo="0" devices="tripinfo_f_0_10.15" vType="DEFAULT_VEHTYPE" speedFactor="1.08" vaporized=""/>
    <tripinfo id="f_0_11.14" depart="45.00" departLane="C0C1_0" departPos="5.10" departSpeed="0.00" departDelay="4.00" arrival="189.00" arrivalLane="C2C3_0" arrivalPos="492.80" arrivalSpeed="12.17" duration="144.00" routeLength="1494.90" waitingTime="3.00" waitingCount="1" stopTime="0.00" timeLoss="21.30" rerouteNo="0" devices="tripinfo_f_0_11.14" vType="DEFAULT_VEHTYPE" speedFactor="0.88" vaporized=""/>
    <tripinfo id="f_0_11.15" depart="48.00" departLane="C0C1_0" departPos="5.10" departSpeed="0.00" departDelay="6.00" arrival="191.00" arrivalLane="C2C3_0" arrivalPos="492.80" arrivalSpeed="11.91" duration="143.00" routeLength="1494.90" waitingTime="1.00" waitingCount="1" stopTime="0.00" timeLoss="24.42" rerouteNo="0" devices="tripinfo_f_0_11.15" vType="DEFAULT_VEHTYPE" speedFactor="0.91" vaporized=""/>
    <tripinfo id="f_0_10.16" depart="49.00" departLane="C4C3_0" departPos="5.10" departSpeed="0.00" departDelay="3.00" arrival="191.00" arrivalLane="C2C1_0" arrivalPos="491.30" arrivalSpeed="12.66" duration="142.00" routeLength="1493.50" waitingTime="0.00" waitingCount="0" stopTime="0.00" timeLoss="33.61" rerouteNo="0" devices="tripinfo_f_0_10.16" vType="DEFAULT_VEHTYPE" speedFactor="1.00" vaporized=""/>
    <tripinfo id="f_0_11.16" depart="51.00" departLane="C0C1_0" departPos="5.10" departSpeed="0.00" departDelay="8.00" arrival="192.00" arrivalLane="C2C3_0" arrivalPos="492.80" arrivalSpeed="13.73" duration="141.00" routeLength="1494.90" waitingTime="2.00" waitingCount="1" stopTime="0.00" timeLoss="35.53" rerouteNo="0" devices="tripinfo_f_0_11.16" vType="DEFAULT_VEHTYPE" speedFactor="1.02" vaporized=""/>
    <tripinfo id="f_0_10.17" depart="52.00" departLane="C4C3_0" departPos="5.10" departSpeed="0.00" departDelay="3.00" arrival="192.00" arrivalLane="C2C1_0" arrivalPos="491.30" arrivalSpeed="14.42" duration="140.00" routeLength="1493.50" waitingTime="0.00" waitingCount="0" stopTime="0.00" timeLoss="36.83" rerouteNo="0" devices="tripinfo_f_0_10.17" vType="DEFAULT_VEHTYPE" speedFactor="1.04" vaporized=""/>
    <tripinfo id="f_0_11.17" depart="54.00" departLane="C0C1_0" departPos="5.10" departSpeed="0.00" departDelay="9.00" arrival="194.00" arrivalLane="C2C3_0" arrivalPos="492.80" arrivalSpeed="14.15" duration="140.00" routeLength="1494.90" waitingTime="1.00" waitingCount="1" stopTime="0.00" timeLoss="35.18" rerouteNo="0" devices="tripinfo_f_0_11.17" vType="DEFAULT_VEHTYPE" speedFactor="1.03" vaporized=""/>
    <tripinfo id="f_1_10.0" depart="83.00" departLane="C4C3_0" departPos="5.10" departSpeed="0.00" departDelay="0.00" arrival="194.00" arrivalLane="C2C1_0" arrivalPos="491.30" arrivalSpeed="15.35" duration="111.00" routeLength="1493.50" waitingTime="0.00" waitingCount="0" stopTime="0.00" timeLoss="15.32" rerouteNo="0" devices="tripinfo_f_1_10.0" vType="DEFAULT_VEHTYPE" speedFactor="1.13" vaporized=""/>
    <tripinfo id="f_0_11.18" depart="57.00" departLane="C0C1_0" departPos="5.10" departSpeed="0.00" departDelay="9.00" arrival="196.00" arrivalLane="C2C3_0" arrivalPos="492.80" arrivalSpeed="12.54" duration="139.00" routeLength="1494.90" waitingTime="1.00" waitingCount="1" stopTime="0.00" timeLoss="27.92" rerouteNo="0" devices="tripinfo_f_0_11.18" vType="DEFAULT_VEHTYPE" speedFactor="0.98" vaporized=""/>
    <tripinfo id="f_0_15.5" depart="55.00" departLane="E0E1_0" departPos="5.10" departSpeed="0.00" departDelay="2.00" arrival="196.00" arrivalLane="E2E3_0" arrivalPos="492.80" arrivalSpeed="12.26" duration="141.00" routeLength="1494.90" waitingTime="6.00" waitingCount="1" stopTime="0.00" timeLoss="19.61" rerouteNo="0" devices="tripinfo_f_0_15.5" vType="DEFAULT_VEHTYPE" speedFactor="0.89" vaporized=""/>
    <tripinfo id="f_0_15.6" depart="58.00" departLane="E0E1_0" departPos="5.10" departSpeed="0.00" departDelay="3.00" arrival="197.00" arrivalLane="E2E3_0" arrivalPos="492.80" arrivalSpeed="13.99" duration="139.00" routeLength="1494.90" waitingTime="3.00" waitingCount="1" stopTime="0.00" timeLoss="37.09" rerouteNo="0" devices="tripinfo_f_0_15.6" vType="DEFAULT_VEHTYPE" speedFactor="1.06" vaporized=""/>
    <tripinfo id="f_0_13.12" depart="64.00" departLane="D0D1_0" departPos="5.10" departSpeed="0.00" departDelay="3.00" arrival="198.00" arrivalLane="D2D3_0" arrivalPos="492.80" arrivalSpeed="13.05" duration="134.00" routeLength="1494.90" waitingTime="6.00" waitingCount="1" stopTime="0.00" timeLoss="21.17" rerouteNo="0" devices="tripinfo_f_0_13.12" vType="DEFAULT_VEHTYPE" speedFactor="0.96" vaporized=""/>
    <tripinfo id="f_0_12.8" depart="68.00" departLane="D4D3_0" departPos="5.10" departSpeed="0.00" departDelay="0.00" arrival="198.00" arrivalLane="D2D1_0" arrivalPos="491.30" arrivalSpeed="11.88" duration="130.00" routeLength="1493.50" waitingTime="1.00" waitingCount="1" stopTime="0.00" timeLoss="15.15" rerouteNo="0" devices="tripinfo_f_0_12.8" vType="DEFAULT_VEHTYPE" speedFactor="0.94" vaporized=""/>
    <tripinfo id="f_0_14.3" depart="54.00" departLane="E4E3_0" departPos="5.10" departSpeed="0.00" departDelay="0.00" arrival="199.00" arrivalLane="E2E1_0" arrivalPos="491.30" arrivalSpeed="10.33" duration="145.00" routeLength="1493.50" waitingTime="1.00" waitingCount="1" stopTime="0.00" timeLoss="15.56" rerouteNo="0" devices="tripinfo_f_0_14.3" vType="DEFAULT_VEHTYPE" speedFactor="0.83" vaporized=""/>