<?xml version="1.0" encoding="UTF-8"?>

<!-- generated on 2024-08-16 22:33:32 by Eclipse SUMO sumo Version 1.12.0
<configuration xmlns:xsi="http://www.w3.org/2001/XMLSchema-instance" xsi:noNamespaceSchemaLocation="http://sumo.dlr.de/xsd/sumoConfiguration.xsd">

    <input>
        <net-file value="quad_actuated.net.xml"/>
        <route-files value="quad_2.rou.xml"/>
    </input>

    <output>
        <summary-output value="control_summaries//summary_quad_actuated_2.xml"/>
        <tripinfo-output value="control_summaries//tripinfos_quad_actuated_2.xml"/>
    </output>

    <processing>
        <time-to-teleport value="-1"/>
    </processing>

    <traci_server>
        <remote-port value="58517"/>
    </traci_server>

</configuration>
-->

<tripinfos xmlns:xsi="http://www.w3.org/2001/XMLSchema-instance" xsi:noNamespaceSchemaLocation="http://sumo.dlr.de/xsd/tripinfo_file.xsd">
    <tripinfo id="f_0_18.0" depart="4.00" departLane="A4B4_0" departPos="5.10" departSpeed="0.00" departDelay="0.00" arrival="145.00" arrivalLane="D4E4_0" arrivalPos="492.80" arrivalSpeed="15.00" duration="141.00" routeLength="1994.90" waitingTime="1.00" waitingCount="1" stopTime="0.00" timeLoss="17.71" rerouteNo="0" devices="tripinfo_f_0_18.0" vType="DEFAULT_VEHTYPE" speedFactor="1.17" vaporized=""/>
    <tripinfo id="f_0_4.0" depart="0.00" departLane="C11C10_0" departPos="5.10" departSpeed="0.00" departDelay="0.00" arrival="146.00" arrivalLane="C8C7_0" arrivalPos="492.80" arrivalSpeed="14.26" duration="146.00" routeLength="1994.90" waitingTime="0.00" waitingCount="0" stopTime="0.00" timeLoss="9.93" rerouteNo="0" devices="tripinfo_f_0_4.0" vType="DEFAULT_VEHTYPE" speedFactor="1.06" vaporized=""/>
    <tripinfo id="f_0_15.0" depart="1.00" departLane="H6H7_0" departPos="5.10" departSpeed="0.00" departDelay="0.00" arrival="150.00" arrivalLane="H9H10_0" arrivalPos="491.30" arrivalSpeed="14.19" duration="149.00" routeLength="1993.50" waitingTime="2.00" waitingCount="1" stopTime="0.00" timeLoss="16.95" rerouteNo="0" devices="tripinfo_f_0_15.0" vType="DEFAULT_VEHTYPE" speedFactor="1.09" vaporized=""/>
    <tripinfo id="f_0_23.0" depart="0.00" departLane="D2D3_0" departPos="5.10" departSpeed="0.00" departDelay="0.00" arrival="151.00" arrivalLane="D5D6_0" arrivalPos="492.80" arrivalSpeed="14.11" duration="151.00" routeLength="1994.90" waitingTime="0.00" waitingCount="0" stopTime="0.00" timeLoss="10.67" rerouteNo="0" devices="tripinfo_f_0_23.0" vType="DEFAULT_VEHTYPE" speedFactor="1.03" vaporized=""/>
    <tripinfo id="f_1_27.0" depart="1.00" departLane="J4I4_0" departPos="5.10" departSpeed="0.00" departDelay="0.00" arrival="151.00" arrivalLane="G4F4_0" arrivalPos="492.80" arrivalSpeed="15.09" duration="150.00" routeLength="1994.90" waitingTime="7.00" waitingCount="1" stopTime="0.00" timeLoss="21.15" rerouteNo="0" devices="tripinfo_f_1_27.0" vType="DEFAULT_VEHTYPE" speedFactor="1.12" vaporized=""/>
    <tripinfo id="f_0_20.0" depart="1.00" departLane="C7C6_0" departPos="5.10" departSpeed="0.00" departDelay="0.00" arrival="152.00" arrivalLane="C4C3_0" arrivalPos="491.30" arrivalSpeed="13.59" duration="151.00" routeLength="1993.50" waitingTime="0.00" waitingCount="0" stopTime="0.00" timeLoss="10.22" rerouteNo="0" devices="tripinfo_f_0_20.0" vType="DEFAULT_VEHTYPE" speedFactor="1.03" vaporized=""/>
    <tripinfo id="f_0_23.1" depart="3.00" departLane="D2D3_0" departPos="5.10" departSpeed="0.00" departDelay="2.00" arrival="152.00" arrivalLane="D5D6_0" arrivalPos="492.80" arrivalSpeed="14.17" duration="149.00" routeLength="1994.90" waitingTime="0.00" waitingCount="0" stopTime="0.00" timeLoss="11.59" rerouteNo="0" devices="tripinfo_f_0_23.1" vType="DEFAULT_VEHTYPE" speedFactor="1.05" vaporized=""/>
    <tripinfo id="f_0_14.0" depart="0.00" departLane="H11H10_0" departPos="5.10" departSpeed="0.00" departDelay="0.00" arrival="153.00" arrivalLane="H8H7_0" arrivalPos="492.80" arrivalSpeed="14.43" duration="153.00" routeLength="1994.90" waitingTime="5.00" waitingCount="1" stopTime="0.00" timeLoss="19.79" rerouteNo="0" devices="tripinfo_f_0_14.0" vType="DEFAULT_VEHTYPE" speedFactor="1.08" vaporized=""/>
    <tripinfo id="f_0_20.1" depart="4.00" departLane="C7C6_0" departPos="5.10" departSpeed="0.00" departDelay="2.00" arrival="153.00" arrivalLane="C4C3_0" arrivalPos="491.30" arrivalSpeed="15.86" duration="149.00" routeLength="1993.50" waitingTime="0.00" waitingCount="0" stopTime="0.00" timeLoss="24.81" rerouteNo="0" devices="tripinfo_f_0_20.1" vType="DEFAULT_VEHTYPE" speedFactor="1.16" vaporized=""/>
    <tripinfo id="f_1_29.0" depart="3.00" departLane="G2G3_0" departPos="5.10" departSpeed="0.00" departDelay="0.00" arrival="155.00" arrivalLane="G5G6_0" arrivalPos="492.80" arrivalSpeed="15.74" duration="152.00" routeLength="1994.90" waitingTime="5.00" waitingCount="1" stopTime="0.00" timeLoss="27.13" rerouteNo="0" devices="tripinfo_f_1_29.0" vType="DEFAULT_VEHTYPE" speedFactor="1.15" vaporized=""/>
    <tripinfo id="f_1_26.0" depart="16.00" departLane="E4F4_0" departPos="5.10" departSpeed="0.00" departDelay="0.00" arrival="156.00" arrivalLane="H4I4_0" arrivalPos="491.30" arrivalSpeed="15.32" duration="140.00" routeLength="1993.50" waitingTime="4.00" waitingCount="1" stopTime="0.00" timeLoss="17.80" rerouteNo="0" devices="tripinfo_f_1_26.0" vType="DEFAULT_VEHTYPE" speedFactor="1.18" vaporized=""/>
    <tripinfo id="f_1_29.1" depart="6.00" departLane="G2G3_0" departPos="5.10" departSpeed="0.00" departDelay="2.00" arrival="161.00" arrivalLane="G5G6_0" arrivalPos="492.80" arrivalSpeed="13.24" duration="155.00" routeLength="1994.90" waitingTime="0.00" waitingCount="0" stopTime="0.00" timeLoss="13.67" rerouteNo="0" devices="tripinfo_f_1_29.1" vType="DEFAULT_VEHTYPE" speedFactor="1.02" vaporized=""/>
    <tripinfo id="f_0_14.1" depart="3.00" departLane="H11H10_0" departPos="5.10" departSpeed="0.00" departDelay="1.00" arrival="166.00" arrivalLane="H8H7_0" arrivalPos="492.80" arrivalSpeed="12.89" duration="163.00" routeLength="1994.90" waitingTime="0.00" waitingCount="0" stopTime="0.00" timeLoss="10.41" rerouteNo="0" devices="tripinfo_f_0_14.1" vType="DEFAULT_VEHTYPE" speedFactor="0.94" vaporized=""/>
    <tripinfo id="f_0_16.0" depart="2.00" departLane="A5B5_0" departPos="5.10" departSpeed="0.00" departDelay="0.00" arrival="167.00" arrivalLane="D5E5_0" arrivalPos="492.80" arrivalSpeed="11.80" duration="165.00" routeLength="1994.90" waitingTime="0.00" waitingCount="0" stopTime="0.00" timeLoss="10.98" rerouteNo="0" devices="tripinfo_f_0_16.0" vType="DEFAULT_VEHTYPE" speedFactor="0.94" vaporized=""/>
    <tripinfo id="f_1_31.0" depart="5.00" departLane="H2H3_0" departPos="5.10" departSpeed="0.00" departDelay="0.00" arrival="167.00" arrivalLane="H5H6_0" arrivalPos="492.80" arrivalSpeed="13.59" duration="162.00" routeLength="1994.90" waitingTime="7.00" waitingCount="1" stopTime="0.00" timeLoss="22.47" rerouteNo="0" devices="tripinfo_f_1_31.0" vType="DEFAULT_VEHTYPE" speedFactor="1.03" vaporized=""/>
    <tripinfo id="f_0_15.1" depart="7.00" departLane="H6H7_0" departPos="5.10" departSpeed="0.00" departDelay="0.00" arrival="167.00" arrivalLane="H9H10_0" arrivalPos="491.30" arrivalSpeed="13.26" duration="160.00" routeLength="1993.50" waitingTime="0.00" waitingCount="0" stopTime="0.00" timeLoss="15.45" rerouteNo="0" devices="tripinfo_f_0_15.1" vType="DEFAULT_VEHTYPE" speedFactor="1.00" vaporized=""/>
    <tripinfo id="f_1_30.0" depart="0.00" departLane="H7H6_0" departPos="5.10" departSpeed="0.00" departDelay="0.00" arrival="168.00" arrivalLane="H4H3_0" arrivalPos="491.30" arrivalSpeed="14.21" duration="168.00" routeLength="1993.50" waitingTime="10.00" waitingCount="2" stopTime="0.00" timeLoss="30.74" rerouteNo="0" devices="tripinfo_f_1_30.0" vType="DEFAULT_VEHTYPE" speedFactor="1.05" vaporized=""/>
    <tripinfo id="f_0_1.0" depart="5.00" departLane="F9E9_0" departPos="5.10" departSpeed="0.00" departDelay="0.00" arrival="168.00" arrivalLane="C9B9_0" arrivalPos="491.30" arrivalSpeed="12.85" duration="163.00" routeLength="1993.50" waitingTime="0.00" waitingCount="0" stopTime="0.00" timeLoss="14.92" rerouteNo="0" devices="tripinfo_f_0_1.0" vType="DEFAULT_VEHTYPE" speedFactor="0.97" vaporized=""/>
    <tripinfo id="f_0_16.1" depart="5.00" departLane="A5B5_0" departPos="5.10" departSpeed="0.00" departDelay="0.00" arrival="168.00" arrivalLane="D5E5_0" arrivalPos="492.80" arrivalSpeed="14.75" duration="163.00" routeLength="1994.90" waitingTime="0.00" waitingCount="0" stopTime="0.00" timeLoss="32.56" rerouteNo="0" devices="tripinfo_f_0_16.1" vType="DEFAULT_VEHTYPE" speedFactor="1.10" vaporized=""/>
    <tripinfo id="f_0_16.2" depart="8.00" departLane="A5B5_0" departPos="5.10" departSpeed="0.00" departDelay="2.00" arrival="170.00" arrivalLane="D5E5_0" arrivalPos="492.80" arrivalSpeed="13.53" duration="162.00" routeLength="1994.90" waitingTime="0.00" waitingCount="0" stopTime="0.00" timeLoss="23.16" rerouteNo="0" devices="tripinfo_f_0_16.2" vType="DEFAULT_VEHTYPE" speedFactor="1.04" vaporized=""/>
    <tripinfo id="f_0_1.1" depart="8.00" departLane="F9E9_0" departPos="5.10" departSpeed="0.00" departDelay="0.00" arrival="170.00" arrivalLane="C9B9_0" arrivalPos="491.30" arrivalSpeed="13.23" duration="162.00" routeLength="1993.50" waitingTime="0.00" waitingCount="0" stopTime="0.00" timeLoss="19.97" rerouteNo="0" devices="tripinfo_f_0_1.1" vType="DEFAULT_VEHTYPE" speedFactor="1.02" vaporized=""/>
    <tripinfo id="f_1_31.1" depart="10.00" departLane="H2H3_0" departPos="5.10" departSpeed="0.00" departDelay="0.00" arrival="172.00" arrivalLane="H5H6_0" arrivalPos="492.80" arrivalSpeed="12.92" duration="162.00" routeLength="1994.90" waitingTime="1.00" waitingCount="1" stopTime="0.00" timeLoss="15.49" rerouteNo="0" devices="tripinfo_f_1_31.1" vType="DEFAULT_VEHTYPE" speedFactor="0.98" vaporized=""/>
    <tripinfo id="f_0_16.3" depart="16.00" departLane="A5B5_0" departPos="5.10" departSpeed="0.00" departDelay="0.00" arrival="172.00" arrivalLane="D5E5_0" arrivalPos="492.80" arrivalSpeed="14.41" duration="156.00" routeLength="1994.90" waitingTime="0.00" waitingCount="0" stopTime="0.00" timeLoss="24.27" rerouteNo="0" devices="tripinfo_f_0_16.3" vType="DEFAULT_VEHTYPE" speedFactor="1.10" vaporized=""/>
    <tripinfo id="f_0_9.0" depart="0.00" departLane="J9I9_0" departPos="5.10" departSpeed="0.00" departDelay="0.00" arrival="174.00" arrivalLane="G9F9_0" arrivalPos="492.80" arrivalSpeed="12.72" duration="174.00" routeLength="1994.90" waitingTime="5.00" waitingCount="1" stopTime="0.00" timeLoss="20.41" rerouteNo="0" devices="tripinfo_f_0_9.0" vType="DEFAULT_VEHTYPE" speedFactor="0.94" vaporized=""/>
    <tripinfo id="f_0_11.0" depart="0.00" departLane="J8I8_0" departPos="5.10" departSpeed="0.00" departDelay="0.00" arrival="174.00" arrivalLane="G8F8_0" arrivalPos="492.80" arrivalSpeed="12.86" duration="174.00" routeLength="1994.90" waitingTime="12.00" waitingCount="1" stopTime="0.00" timeLoss="31.76" rerouteNo="0" devices="tripinfo_f_0_11.0" vType="DEFAULT_VEHTYPE" speedFactor="1.01" vaporized=""/>
    <tripinfo id="f_0_17.0" depart="20.00" departLane="F5E5_0" departPos="5.10" departSpeed="0.00" departDelay="0.00" arrival="175.00" arrivalLane="C5B5_0" arrivalPos="491.30" arrivalSpeed="15.79" duration="155.00" routeLength="1993.50" waitingTime="15.00" waitingCount="1" stopTime="0.00" timeLoss="30.92" rerouteNo="0" devices="tripinfo_f_0_17.0" vType="DEFAULT_VEHTYPE" speedFactor="1.16" vaporized=""/>
    <tripinfo id="f_0_23.2" depart="6.00" departLane="D2D3_0" departPos="5.10" departSpeed="0.00" departDelay="4.00" arrival="176.00" arrivalLane="D5D6_0" arrivalPos="492.80" arrivalSpeed="12.87" duration="170.00" routeLength="1994.90" waitingTime="7.00" waitingCount="2" stopTime="0.00" timeLoss="28.29" rerouteNo="0" devices="tripinfo_f_0_23.2" vType="DEFAULT_VEHTYPE" speedFactor="1.02" vaporized=""/>
    <tripinfo id="f_1_25.0" depart="5.00" departLane="J5I5_0" departPos="5.10" departSpeed="0.00" departDelay="0.00" arrival="176.00" arrivalLane="G5F5_0" arrivalPos="492.80" arrivalSpeed="11.47" duration="171.00" routeLength="1994.90" waitingTime="0.00" waitingCount="0" stopTime="0.00" timeLoss="11.23" rerouteNo="0" devices="tripinfo_f_1_25.0" vType="DEFAULT_VEHTYPE" speedFactor="0.90" vaporized=""/>
    <tripinfo id="f_0_10.0" depart="1.00" departLane="E8F8_0" departPos="5.10" departSpeed="0.00" departDelay="0.00" arrival="177.00" arrivalLane="H8I8_0" arrivalPos="491.30" arrivalSpeed="12.71" duration="176.00" routeLength="1993.50" waitingTime="1.00" waitingCount="1" stopTime="0.00" timeLoss="22.63" rerouteNo="0" devices="tripinfo_f_0_10.0" vType="DEFAULT_VEHTYPE" speedFactor="0.94" vaporized=""/>
    <tripinfo id="f_0_11.1" depart="9.00" departLane="J8I8_0" departPos="5.10" departSpeed="0.00" departDelay="0.00" arrival="177.00" arrivalLane="G8F8_0" arrivalPos="492.80" arrivalSpeed="12.71" duration="168.00" routeLength="1994.90" waitingTime="4.00" waitingCount="1" stopTime="0.00" timeLoss="21.99" rerouteNo="0" devices="tripinfo_f_0_11.1" vType="DEFAULT_VEHTYPE" speedFactor="0.99" vaporized=""/>
    <tripinfo id="f_1_25.1" depart="8.00" departLane="J5I5_0" departPos="5.10" departSpeed="0.00" departDelay="0.00" arrival="178.00" arrivalLane="G5F5_0" arrivalPos="492.80" arrivalSpeed="13.36" duration="170.00" routeLength="1994.90" waitingTime="0.00" waitingCount="0" stopTime="0.00" timeLoss="28.98" rerouteNo="0" devices="tripinfo_f_1_25.1" vType="DEFAULT_VEHTYPE" speedFactor="1.02" vaporized=""/>
    <tripinfo id="f_0_10.1" depart="5.00" departLane="E8F8_0" departPos="5.10" departSpeed="0.00" departDelay="0.00" arrival="179.00" arrivalLane="H8I8_0" arrivalPos="491.30" arrivalSpeed="15.94" duration="174.00" routeLength="1993.50" waitingTime="1.00" waitingCount="1" stopTime="0.00" timeLoss="51.54" rerouteNo="0" devices="tripinfo_f_0_10.1" vType="DEFAULT_VEHTYPE" speedFactor="1.18" vaporized=""/>
    <tripinfo id="f_0_11.2" depart="12.00" departLane="J8I8_0" departPos="5.10" departSpeed="0.00" departDelay="2.00" arrival="179.00" arrivalLane="G8F8_0" arrivalPos="492.80" arrivalSpeed="14.36" duration="167.00" routeLength="1994.90" waitingTime="4.00" waitingCount="1" stopTime="0.00" timeLoss="30.11" rerouteNo="0" devices="tripinfo_f_0_11.2" vType="DEFAULT_VEHTYPE" speedFactor="1.06" vaporized=""/>
    <tripinfo id="f_1_25.2" depart="19.00" departLane="J5I5_0" departPos="5.10" departSpeed="0.00" departDelay="0.00" arrival="179.00" arrivalLane="G5F5_0" arrivalPos="492.80" arrivalSpeed="14.41" duration="160.00" routeLength="1994.90" waitingTime="0.00" waitingCount="0" stopTime="0.00" timeLoss="21.51" rerouteNo="0" devices="tripinfo_f_1_25.2" vType="DEFAULT_VEHTYPE" speedFactor="1.04" vaporized=""/>
    <tripinfo id="f_1_27.1" depart="4.00" departLane="J4I4_0" departPos="5.10" departSpeed="0.00" departDelay="2.00" arrival="180.00" arrivalLane="G4F4_0" arrivalPos="492.80" arrivalSpeed="13.13" duration="176.00" routeLength="1994.90" waitingTime="14.00" waitingCount="1" stopTime="0.00" timeLoss="33.59" rerouteNo="0" devices="tripinfo_f_1_27.1" vType="DEFAULT_VEHTYPE" speedFactor="1.01" vaporized=""/>
    <tripinfo id="f_0_11.3" depart="15.00" departLane="J8I8_0" departPos="5.10" departSpeed="0.00" departDelay="4.00" arrival="180.00" arrivalLane="G8F8_0" arrivalPos="492.80" arrivalSpeed="13.37" duration="165.00" routeLength="1994.90" waitingTime="2.00" waitingCount="1" stopTime="0.00" timeLoss="26.12" rerouteNo="0" devices="tripinfo_f_0_11.3" vType="DEFAULT_VEHTYPE" speedFactor="1.03" vaporized=""/>
    <tripinfo id="f_0_9.1" depart="3.00" departLane="J9I9_0" departPos="5.10" departSpeed="0.00" departDelay="2.00" arrival="181.00" arrivalLane="G9F9_0" arrivalPos="492.80" arrivalSpeed="11.90" duration="178.00" routeLength="1994.90" waitingTime="0.00" waitingCount="0" stopTime="0.00" timeLoss="15.65" rerouteNo="0" devices="tripinfo_f_0_9.1" vType="DEFAULT_VEHTYPE" speedFactor="0.89" vaporized=""/>
    <tripinfo id="f_0_4.1" depart="3.00" departLane="C11C10_0" departPos="5.10" departSpeed="0.00" departDelay="0.00" arrival="181.00" arrivalLane="C8C7_0" arrivalPos="492.80" arrivalSpeed="11.94" duration="178.00" routeLength="1994.90" waitingTime="0.00" waitingCount="0" stopTime="0.00" timeLoss="12.47" rerouteNo="0" devices="tripinfo_f_0_4.1" vType="DEFAULT_VEHTYPE" speedFactor="0.87" vaporized=""/>
    <tripinfo id="f_0_5.0" depart="3.00" departLane="C6C7_0" departPos="5.10" departSpeed="0.00" departDelay="0.00" arrival="181.00" arrivalLane="C9C10_0" arrivalPos="491.30" arrivalSpeed="12.05" duration="178.00" routeLength="1993.50" waitingTime="4.00" waitingCount="1" stopTime="0.00" timeLoss="21.48" rerouteNo="0" devices="tripinfo_f_0_5.0" vType="DEFAULT_VEHTYPE" speedFactor="0.92" vaporized=""/>
    <tripinfo id="f_1_25.3" depart="22.00" departLane="J5I5_0" departPos="5.10" departSpeed="0.00" departDelay="2.00" arrival="181.00" arrivalLane="G5F5_0" arrivalPos="492.80" arrivalSpeed="15.15" duration="159.00" routeLength="1994.90" waitingTime="0.00" waitingCount="0" stopTime="0.00" timeLoss="29.69" rerouteNo="0" devices="tripinfo_f_1_25.3" vType="DEFAULT_VEHTYPE" speedFactor="1.11" vaporized=""/>
    <tripinfo id="f_1_27.2" depart="7.00" departLane="J4I4_0" departPos="5.10" departSpeed="0.00" departDelay="3.00" arrival="182.00" arrivalLane="G4F4_0" arrivalPos="492.80" arrivalSpeed="13.29" duration="175.00" routeLength="1994.90" waitingTime="14.00" waitingCount="1" stopTime="0.00" timeLoss="30.54" rerouteNo="0" devices="tripinfo_f_1_27.2" vType="DEFAULT_VEHTYPE" speedFactor="0.99" vaporized=""/>
    <tripinfo id="f_0_4.2" depart="8.00" departLane="C11C10_0" departPos="5.10" departSpeed="0.00" departDelay="0.00" arrival="182.00" arrivalLane="C8C7_0" arrivalPos="492.80" arrivalSpeed="13.79" duration="174.00" routeLength="1994.90" waitingTime="0.00" waitingCount="0" stopTime="0.00" timeLoss="42.67" rerouteNo="0" devices="tripinfo_f_0_4.2" vType="DEFAULT_VEHTYPE" speedFactor="1.10" vaporized=""/>
    <tripinfo id="f_0_11.4" depart="18.00" departLane="J8I8_0" departPos="5.10" departSpeed="0.00" departDelay="3.00" arrival="182.00" arrivalLane="G8F8_0" arrivalPos="492.80" arrivalSpeed="14.33" duration="164.00" routeLength="1994.90" waitingTime="2.00" waitingCount="1" stopTime="0.00" timeLoss="29.71" rerouteNo="0" devices="tripinfo_f_0_11.4" vType="DEFAULT_VEHTYPE" speedFactor="1.07" vaporized=""/>
    <tripinfo id="f_0_9.2" depart="6.00" departLane="J9I9_0" departPos="5.10" departSpeed="0.00" departDelay="3.00" arrival="183.00" arrivalLane="G9F9_0" arrivalPos="492.80" arrivalSpeed="15.63" duration="177.00" routeLength="1994.90" waitingTime="0.00" waitingCount="0" stopTime="0.00" timeLoss="49.43" rerouteNo="0" devices="tripinfo_f_0_9.2" vType="DEFAULT_VEHTYPE" speedFactor="1.13" vaporized=""/>
    <tripinfo id="f_0_5.1" depart="7.00" departLane="C6C7_0" departPos="5.10" departSpeed="0.00" departDelay="0.00" arrival="183.00" arrivalLane="C9C10_0" arrivalPos="491.30" arrivalSpeed="13.22" duration="176.00" routeLength="1993.50" waitingTime="4.00" waitingCount="1" stopTime="0.00" timeLoss="38.00" rerouteNo="0" devices="tripinfo_f_0_5.1" vType="DEFAULT_VEHTYPE" speedFactor="1.04" vaporized=""/>
    <tripinfo id="f_0_17.1" depart="23.00" departLane="F5E5_0" departPos="5.10" departSpeed="0.00" departDelay="2.00" arrival="183.00" arrivalLane="C5B5_0" arrivalPos="491.30" arrivalSpeed="12.08" duration="160.00" routeLength="1993.50" waitingTime="0.00" waitingCount="0" stopTime="0.00" timeLoss="10.93" rerouteNo="0" devices="tripinfo_f_0_17.1" vType="DEFAULT_VEHTYPE" speedFactor="0.96" vaporized=""/>
    <tripinfo id="f_0_4.3" depart="13.00" departLane="C11C10_0" departPos="5.10" departSpeed="0.00" departDelay="0.00" arrival="184.00" arrivalLane="C8C7_0" arrivalPos="492.80" arrivalSpeed="14.01" duration="171.00" routeLength="1994.90" waitingTime="0.00" waitingCount="0" stopTime="0.00" timeLoss="32.63" rerouteNo="0" devices="tripinfo_f_0_4.3" vType="DEFAULT_VEHTYPE" speedFactor="1.04" vaporized=""/>
    <tripinfo id="f_0_11.5" depart="22.00" departLane="J8I8_0" departPos="5.10" departSpeed="0.00" departDelay="0.00" arrival="184.00" arrivalLane="G8F8_0" arrivalPos="492.80" arrivalSpeed="14.68" duration="162.00" routeLength="1994.90" waitingTime="0.00" waitingCount="0" stopTime="0.00" timeLoss="27.25" rerouteNo="0" devices="tripinfo_f_0_11.5" vType="DEFAULT_VEHTYPE" speedFactor="1.07" vaporized=""/>
    <tripinfo id="f_0_23.3" depart="9.00" departLane="D2D3_0" departPos="5.10" departSpeed="0.00" departDelay="2.00" arrival="185.00" arrivalLane="D5D6_0" arrivalPos="492.80" arrivalSpeed="12.18" duration="176.00" routeLength="1994.90" waitingTime="0.00" waitingCount="0" stopTime="0.00" timeLoss="11.33" rerouteNo="0" devices="tripinfo_f_0_23.3" vType="DEFAULT_VEHTYPE" speedFactor="0.88" vaporized=""/>
    <tripinfo id="f_0_5.2" depart="10.00" departLane="C6C7_0" departPos="5.10" departSpeed="0.00" departDelay="1.00" arrival="185.00" arrivalLane="C9C10_0" arrivalPos="491.30" arrivalSpeed="15.07" duration="175.00" routeLength="1993.50" waitingTime="4.00" waitingCount="1" stopTime="0.00" timeLoss="45.87" rerouteNo="0" devices="tripinfo_f_0_5.2" vType="DEFAULT_VEHTYPE" speedFactor="1.12" vaporized=""/>
    <tripinfo id="f_0_9.3" depart="9.00" departLane="J9I9_0" departPos="5.10" departSpeed="0.00" departDelay="0.00" arrival="185.00" arrivalLane="G9F9_0" arrivalPos="492.80" arrivalSpeed="14.01" duration="176.00" routeLength="1994.90" waitingTime="0.00" waitingCount="0" stopTime="0.00" timeLoss="33.74" rerouteNo="0" devices="tripinfo_f_0_9.3" vType="DEFAULT_VEHTYPE" speedFactor="1.02" vaporized=""/>
    <tripinfo id="f_0_17.2" depart="26.00" departLane="F5E5_0" departPos="5.10" departSpeed="0.00" departDelay="1.00" arrival="185.00" arrivalLane="C5B5_0" arrivalPos="491.30" arrivalSpeed="15.81" duration="159.00" routeLength="1993.50" waitingTime="0.00" waitingCount="0" stopTime="0.00" timeLoss="32.69" rerouteNo="0" devices="tripinfo_f_0_17.2" vType="DEFAULT_VEHTYPE" speedFactor="1.14" vaporized=""/>
    <tripinfo id="f_0_19.0" depart="31.00" departLane="F4E4_0" departPos="5.10" departSpeed="0.00" departDelay="0.00" arrival="185.00" arrivalLane="C4B4_0" arrivalPos="491.30" arrivalSpeed="13.60" duration="154.00" routeLength="1993.50" waitingTime="0.00" waitingCount="0" stopTime="0.00" timeLoss="13.07" rerouteNo="0" devices="tripinfo_f_0_19.0" vType="DEFAULT_VEHTYPE" speedFactor="1.02" vaporized=""/>
    <tripinfo id="f_0_23.4" depart="12.00" departLane="D2D3_0" departPos="5.10" departSpeed="0.00" departDelay="4.00" arrival="186.00" arrivalLane="D5D6_0" arrivalPos="492.80" arrivalSpeed="13.64" duration="174.00" routeLength="1994.90" waitingTime="0.00" waitingCount="0" stopTime="0.00" timeLoss="48.06" rerouteNo="0" devices="tripinfo_f_0_23.4" vType="DEFAULT_VEHTYPE" speedFactor="1.14" vaporized=""/>
    <tripinfo id="f_0_5.3" depart="13.00" departLane="C6C7_0" departPos="5.10" departSpeed="0.00" departDelay="3.00" arrival="186.00" arrivalLane="C9C10_0" arrivalPos="491.30" arrivalSpeed="13.48" duration="173.00" routeLength="1993.50" waitingTime="2.00" waitingCount="1" stopTime="0.00" timeLoss="32.67" rerouteNo="0" devices="tripinfo_f_0_5.3" vType="DEFAULT_VEHTYPE" speedFactor="1.02" vaporized=""/>
    <tripinfo id="f_0_4.4" depart="19.00" departLane="C11C10_0" departPos="5.10" departSpeed="0.00" departDelay="0.00" arrival="186.00" arrivalLane="C8C7_0" arrivalPos="492.80" arrivalSpeed="13.49" duration="167.00" routeLength="1994.90" waitingTime="0.00" waitingCount="0" stopTime="0.00" timeLoss="23.70" rerouteNo="0" devices="tripinfo_f_0_4.4" vType="DEFAULT_VEHTYPE" speedFactor="1.01" vaporized=""/>
    <tripinfo id="f_0_8.0" depart="3.00" departLane="E9F9_0" departPos="5.10" departSpeed="0.00" departDelay="0.00" arrival="187.00" arrivalLane="H9I9_0" arrivalPos="491.30" arrivalSpeed="11.99" duration="184.00" routeLength="1993.50" waitingTime="16.00" waitingCount="1" stopTime="0.00" timeLoss="31.87" rerouteNo="0" devices="tripinfo_f_0_8.0" vType="DEFAULT_VEHTYPE" speedFactor="0.95" vaporized=""/>
    <tripinfo id="f_0_9.4" depart="12.00" departLane="J9I9_0" departPos="5.10" departSpeed="0.00" departDelay="2.00" arrival="187.00" arrivalLane="G9F9_0" arrivalPos="492.80" arrivalSpeed="12.38" duration="175.00" routeLength="1994.90" waitingTime="0.00" waitingCount="0" stopTime="0.00" timeLoss="21.30" rerouteNo="0" devices="tripinfo_f_0_9.4" vType="DEFAULT_VEHTYPE" speedFactor="0.94" vaporized=""/>
    <tripinfo id="f_0_4.5" depart="22.00" departLane="C11C10_0" departPos="5.10" departSpeed="0.00" departDelay="1.00" arrival="187.00" arrivalLane="C8C7_0" arrivalPos="492.80" arrivalSpeed="15.57" duration="165.00" routeLength="1994.90" waitingTime="0.00" waitingCount="0" stopTime="0.00" timeLoss="37.47" rerouteNo="0" devices="tripinfo_f_0_4.5" vType="DEFAULT_VEHTYPE" speedFactor="1.13" vaporized=""/>
    <tripinfo id="f_0_17.3" depart="29.00" departLane="F5E5_0" departPos="5.10" departSpeed="0.00" departDelay="3.00" arrival="187.00" arrivalLane="C5B5_0" arrivalPos="491.30" arrivalSpeed="14.74" duration="158.00" routeLength="1993.50" waitingTime="0.00" waitingCount="0" stopTime="0.00" timeLoss="22.35" rerouteNo="0" devices="tripinfo_f_0_17.3" vType="DEFAULT_VEHTYPE" speedFactor="1.06" vaporized=""/>
    <tripinfo id="f_0_8.1" depart="6.00" departLane="E9F9_0" departPos="5.10" departSpeed="0.00" departDelay="0.00" arrival="188.00" arrivalLane="H9I9_0" arrivalPos="491.30" arrivalSpeed="13.06" duration="182.00" routeLength="1993.50" waitingTime="15.00" waitingCount="1" stopTime="0.00" timeLoss="31.89" rerouteNo="0" devices="tripinfo_f_0_8.1" vType="DEFAULT_VEHTYPE" speedFactor="0.96" vaporized=""/>
    <tripinfo id="f_0_5.4" depart="16.00" departLane="C6C7_0" departPos="5.10" departSpeed="0.00" departDelay="5.00" arrival="188.00" arrivalLane="C9C10_0" arrivalPos="491.30" arrivalSpeed="14.03" duration="172.00" routeLength="1993.50" waitingTime="3.00" waitingCount="1" stopTime="0.00" timeLoss="39.57" rerouteNo="0" devices="tripinfo_f_0_5.4" vType="DEFAULT_VEHTYPE" speedFactor="1.09" vaporized=""/>
    <tripinfo id="f_0_23.5" depart="15.00" departLane="D2D3_0" departPos="5.10" departSpeed="0.00" departDelay="3.00" arrival="188.00" arrivalLane="D5D6_0" arrivalPos="492.80" arrivalSpeed="15.03" duration="173.00" routeLength="1994.90" waitingTime="0.00" waitingCount="0" stopTime="0.00" timeLoss="47.33" rerouteNo="0" devices="tripinfo_f_0_23.5" vType="DEFAULT_VEHTYPE" speedFactor="1.15" vaporized=""/>
    <tripinfo id="f_0_9.5" depart="15.00" departLane="J9I9_0" departPos="5.10" departSpeed="0.00" departDelay="2.00" arrival="188.00" arrivalLane="G9F9_0" arrivalPos="492.80" arrivalSpeed="13.94" duration="173.00" routeLength="1994.90" waitingTime="0.00" waitingCount="0" stopTime="0.00" timeLoss="31.45" rerouteNo="0" devices="tripinfo_f_0_9.5" vType="DEFAULT_VEHTYPE" speedFactor="1.02" vaporized=""/>
    <tripinfo id="f_2_24.0" depart="33.00" departLane="E5F5_0" departPos="5.10" departSpeed="0.00" departDelay="0.00" arrival="188.00" arrivalLane="H5I5_0" arrivalPos="491.30" arrivalSpeed="13.22" duration="155.00" routeLength="1993.50" waitingTime="0.00" waitingCount="0" stopTime="0.00" timeLoss="10.31" rerouteNo="0" devices="tripinfo_f_2_24.0" vType="DEFAULT_VEHTYPE" speedFactor="1.00" vaporized=""/>
    <tripinfo id="f_0_4.6" depart="25.00" departLane="C11C10_0" departPos="5.10" departSpeed="0.00" departDelay="3.00" arrival="189.00" arrivalLane="C8C7_0" arrivalPos="492.80" arrivalSpeed="13.62" duration="164.00" routeLength="1994.90" waitingTime="0.00" waitingCount="0" stopTime="0.00" timeLoss="20.60" rerouteNo="0" devices="tripinfo_f_0_4.6" vType="DEFAULT_VEHTYPE" speedFactor="1.00" vaporized=""/>
    <tripinfo id="f_0_8.2" depart="9.00" departLane="E9F9_0" departPos="5.10" departSpeed="0.00" departDelay="2.00" arrival="190.00" arrivalLane="H9I9_0" arrivalPos="491.30" arrivalSpeed="13.91" duration="181.00" routeLength="1993.50" waitingTime="14.00" waitingCount="1" stopTime="0.00" timeLoss="48.55" rerouteNo="0" devices="tripinfo_f_0_8.2" vType="DEFAULT_VEHTYPE" speedFactor="1.09" vaporized=""/>
    <tripinfo id="f_0_5.5" depart="19.00" departLane="C6C7_0" departPos="5.10" departSpeed="0.00" departDelay="6.00" arrival="190.00" arrivalLane="C9C10_0" arrivalPos="491.30" arrivalSpeed="12.96" duration="171.00" routeLength="1993.50" waitingTime="3.00" waitingCount="1" stopTime="0.00" timeLoss="27.88" rerouteNo="0" devices="tripinfo_f_0_5.5" vType="DEFAULT_VEHTYPE" speedFactor="1.01" vaporized=""/>
    <tripinfo id="f_0_23.6" depart="18.00" departLane="D2D3_0" departPos="5.10" departSpeed="0.00" departDelay="5.00" arrival="190.00" arrivalLane="D5D6_0" arrivalPos="492.80" arrivalSpeed="11.87" duration="172.00" routeLength="1994.90" waitingTime="0.00" waitingCount="0" stopTime="0.00" timeLoss="15.65" rerouteNo="0" devices="tripinfo_f_0_23.6" vType="DEFAULT_VEHTYPE" speedFactor="0.92" vaporized=""/>
    <tripinfo id="f_0_9.6" depart="20.00" departLane="J9I9_0" departPos="5.10" departSpeed="0.00" departDelay="0.00" arrival="190.00" arrivalLane="G9F9_0" arrivalPos="492.80" arrivalSpeed="14.37" duration="170.00" routeLength="1994.90" waitingTime="0.00" waitingCount="0" stopTime="0.00" timeLoss="41.18" rerouteNo="0" devices="tripinfo_f_0_9.6" vType="DEFAULT_VEHTYPE" speedFactor="1.12" vaporized=""/>
    <tripinfo id="f_2_24.1" depart="36.00" departLane="E5F5_0" departPos="5.10" departSpeed="0.00" departDelay="0.00" arrival="190.00" arrivalLane="H5I5_0" arrivalPos="491.30" arrivalSpeed="15.24" duration="154.00" routeLength="1993.50" waitingTime="0.00" waitingCount="0" stopTime="0.00" timeLoss="25.80" rerouteNo="0" devices="tripinfo_f_2_24.1" vType="DEFAULT_VEHTYPE" speedFactor="1.13" vaporized=""/>