<?xml version="1.0" encoding="UTF-8"?>

<!-- generated on 2024-08-16 22:33:28 by Eclipse SUMO sumo Version 1.12.0
<configuration xmlns:xsi="http://www.w3.org/2001/XMLSchema-instance" xsi:noNamespaceSchemaLocation="http://sumo.dlr.de/xsd/sumoConfiguration.xsd">

    <input>
        <net-file value="quad_static_offset.net.xml"/>
        <route-files value="quad_1.rou.xml"/>
    </input>

    <output>
        <summary-output value="control_summaries//summary_quad_static_offset_1.xml"/>
        <tripinfo-output value="control_summaries//tripinfos_quad_static_offset_1.xml"/>
    </output>

    <processing>
        <time-to-teleport value="-1"/>
    </processing>

    <traci_server>
        <remote-port value="54611"/>
    </traci_server>

</configuration>
-->

<tripinfos xmlns:xsi="http://www.w3.org/2001/XMLSchema-instance" xsi:noNamespaceSchemaLocation="http://sumo.dlr.de/xsd/tripinfo_file.xsd">
    <tripinfo id="f_0_12.0" depart="0.00" departLane="G11G10_0" departPos="5.10" departSpeed="0.00" departDelay="0.00" arrival="146.00" arrivalLane="G8G7_0" arrivalPos="492.80" arrivalSpeed="13.99" duration="146.00" routeLength="1994.90" waitingTime="0.00" waitingCount="0" stopTime="0.00" timeLoss="9.95" rerouteNo="0" devices="tripinfo_f_0_12.0" vType="DEFAULT_VEHTYPE" speedFactor="1.06" vaporized=""/>
    <tripinfo id="f_0_12.1" depart="3.00" departLane="G11G10_0" departPos="5.10" departSpeed="0.00" departDelay="2.00" arrival="148.00" arrivalLane="G8G7_0" arrivalPos="492.80" arrivalSpeed="14.13" duration="145.00" routeLength="1994.90" waitingTime="0.00" waitingCount="0" stopTime="0.00" timeLoss="11.45" rerouteNo="0" devices="tripinfo_f_0_12.1" vType="DEFAULT_VEHTYPE" speedFactor="1.08" vaporized=""/>
    <tripinfo id="f_0_12.2" depart="6.00" departLane="G11G10_0" departPos="5.10" departSpeed="0.00" departDelay="1.00" arrival="149.00" arrivalLane="G8G7_0" arrivalPos="492.80" arrivalSpeed="15.04" duration="143.00" routeLength="1994.90" waitingTime="0.00" waitingCount="0" stopTime="0.00" timeLoss="14.87" rerouteNo="0" devices="tripinfo_f_0_12.2" vType="DEFAULT_VEHTYPE" speedFactor="1.12" vaporized=""/>
    <tripinfo id="f_0_18.0" depart="0.00" departLane="A4B4_0" departPos="5.10" departSpeed="0.00" departDelay="0.00" arrival="164.00" arrivalLane="D4E4_0" arrivalPos="492.80" arrivalSpeed="12.62" duration="164.00" routeLength="1994.90" waitingTime="0.00" waitingCount="0" stopTime="0.00" timeLoss="10.24" rerouteNo="0" devices="tripinfo_f_0_18.0" vType="DEFAULT_VEHTYPE" speedFactor="0.94" vaporized=""/>
    <tripinfo id="f_0_25.0" depart="3.00" departLane="J5I5_0" departPos="5.10" departSpeed="0.00" departDelay="0.00" arrival="167.00" arrivalLane="G5F5_0" arrivalPos="492.80" arrivalSpeed="11.85" duration="164.00" routeLength="1994.90" waitingTime="0.00" waitingCount="0" stopTime="0.00" timeLoss="10.85" rerouteNo="0" devices="tripinfo_f_0_25.0" vType="DEFAULT_VEHTYPE" speedFactor="0.94" vaporized=""/>
    <tripinfo id="f_0_13.0" depart="4.00" departLane="G6G7_0" departPos="5.10" departSpeed="0.00" departDelay="0.00" arrival="173.00" arrivalLane="G9G10_0" arrivalPos="491.30" arrivalSpeed="14.88" duration="169.00" routeLength="1993.50" waitingTime="13.00" waitingCount="2" stopTime="0.00" timeLoss="36.76" rerouteNo="0" devices="tripinfo_f_0_13.0" vType="DEFAULT_VEHTYPE" speedFactor="1.09" vaporized=""/>
    <tripinfo id="f_0_16.0" depart="2.00" departLane="A5B5_0" departPos="5.10" departSpeed="0.00" departDelay="0.00" arrival="174.00" arrivalLane="D5E5_0" arrivalPos="492.80" arrivalSpeed="13.38" duration="172.00" routeLength="1994.90" waitingTime="14.00" waitingCount="2" stopTime="0.00" timeLoss="34.32" rerouteNo="0" devices="tripinfo_f_0_16.0" vType="DEFAULT_VEHTYPE" speedFactor="1.05" vaporized=""/>
    <tripinfo id="f_0_27.0" depart="0.00" departLane="J4I4_0" departPos="5.10" departSpeed="0.00" departDelay="0.00" arrival="175.00" arrivalLane="G4F4_0" arrivalPos="492.80" arrivalSpeed="12.74" duration="175.00" routeLength="1994.90" waitingTime="11.00" waitingCount="2" stopTime="0.00" timeLoss="32.79" rerouteNo="0" devices="tripinfo_f_0_27.0" vType="DEFAULT_VEHTYPE" speedFactor="1.01" vaporized=""/>
    <tripinfo id="f_0_27.1" depart="3.00" departLane="J4I4_0" departPos="5.10" departSpeed="0.00" departDelay="2.00" arrival="177.00" arrivalLane="G4F4_0" arrivalPos="492.80" arrivalSpeed="13.14" duration="174.00" routeLength="1994.90" waitingTime="10.00" waitingCount="2" stopTime="0.00" timeLoss="34.29" rerouteNo="0" devices="tripinfo_f_0_27.1" vType="DEFAULT_VEHTYPE" speedFactor="1.03" vaporized=""/>
    <tripinfo id="f_0_27.2" depart="6.00" departLane="J4I4_0" departPos="5.10" departSpeed="0.00" departDelay="2.00" arrival="179.00" arrivalLane="G4F4_0" arrivalPos="492.80" arrivalSpeed="14.38" duration="173.00" routeLength="1994.90" waitingTime="8.00" waitingCount="2" stopTime="0.00" timeLoss="35.23" rerouteNo="0" devices="tripinfo_f_0_27.2" vType="DEFAULT_VEHTYPE" speedFactor="1.05" vaporized=""/>
    <tripinfo id="f_0_13.1" depart="7.00" departLane="G6G7_0" departPos="5.10" departSpeed="0.00" departDelay="2.00" arrival="179.00" arrivalLane="G9G10_0" arrivalPos="491.30" arrivalSpeed="13.39" duration="172.00" routeLength="1993.50" waitingTime="3.00" waitingCount="1" stopTime="0.00" timeLoss="26.26" rerouteNo="0" devices="tripinfo_f_0_13.1" vType="DEFAULT_VEHTYPE" speedFactor="0.99" vaporized=""/>
    <tripinfo id="f_0_16.1" depart="5.00" departLane="A5B5_0" departPos="5.10" departSpeed="0.00" departDelay="0.00" arrival="181.00" arrivalLane="D5E5_0" arrivalPos="492.80" arrivalSpeed="11.70" duration="176.00" routeLength="1994.90" waitingTime="0.00" waitingCount="0" stopTime="0.00" timeLoss="20.25" rerouteNo="0" devices="tripinfo_f_0_16.1" vType="DEFAULT_VEHTYPE" speedFactor="0.93" vaporized=""/>
    <tripinfo id="f_0_27.3" depart="9.00" departLane="J4I4_0" departPos="5.10" departSpeed="0.00" departDelay="2.00" arrival="181.00" arrivalLane="G4F4_0" arrivalPos="492.80" arrivalSpeed="12.93" duration="172.00" routeLength="1994.90" waitingTime="4.00" waitingCount="1" stopTime="0.00" timeLoss="29.60" rerouteNo="0" devices="tripinfo_f_0_27.3" vType="DEFAULT_VEHTYPE" speedFactor="1.01" vaporized=""/>
    <tripinfo id="f_0_16.2" depart="8.00" departLane="A5B5_0" departPos="5.10" departSpeed="0.00" departDelay="1.00" arrival="182.00" arrivalLane="D5E5_0" arrivalPos="492.80" arrivalSpeed="13.58" duration="174.00" routeLength="1994.90" waitingTime="0.00" waitingCount="0" stopTime="0.00" timeLoss="49.84" rerouteNo="0" devices="tripinfo_f_0_16.2" vType="DEFAULT_VEHTYPE" speedFactor="1.16" vaporized=""/>
    <tripinfo id="f_0_27.4" depart="17.00" departLane="J4I4_0" departPos="5.10" departSpeed="0.00" departDelay="0.00" arrival="183.00" arrivalLane="G4F4_0" arrivalPos="492.80" arrivalSpeed="13.44" duration="166.00" routeLength="1994.90" waitingTime="1.00" waitingCount="1" stopTime="0.00" timeLoss="27.10" rerouteNo="0" devices="tripinfo_f_0_27.4" vType="DEFAULT_VEHTYPE" speedFactor="1.04" vaporized=""/>
    <tripinfo id="f_0_13.2" depart="9.00" departLane="G6G7_0" departPos="5.10" departSpeed="0.00" departDelay="1.00" arrival="185.00" arrivalLane="G9G10_0" arrivalPos="491.30" arrivalSpeed="11.39" duration="176.00" routeLength="1993.50" waitingTime="0.00" waitingCount="0" stopTime="0.00" timeLoss="13.76" rerouteNo="0" devices="tripinfo_f_0_13.2" vType="DEFAULT_VEHTYPE" speedFactor="0.89" vaporized=""/>
    <tripinfo id="f_0_27.5" depart="22.00" departLane="J4I4_0" departPos="5.10" departSpeed="0.00" departDelay="0.00" arrival="185.00" arrivalLane="G4F4_0" arrivalPos="492.80" arrivalSpeed="13.03" duration="163.00" routeLength="1994.90" waitingTime="0.00" waitingCount="0" stopTime="0.00" timeLoss="21.07" rerouteNo="0" devices="tripinfo_f_0_27.5" vType="DEFAULT_VEHTYPE" speedFactor="1.02" vaporized=""/>
    <tripinfo id="f_0_13.3" depart="12.00" departLane="G6G7_0" departPos="5.10" departSpeed="0.00" departDelay="3.00" arrival="186.00" arrivalLane="G9G10_0" arrivalPos="491.30" arrivalSpeed="13.00" duration="174.00" routeLength="1993.50" waitingTime="0.00" waitingCount="0" stopTime="0.00" timeLoss="22.49" rerouteNo="0" devices="tripinfo_f_0_13.3" vType="DEFAULT_VEHTYPE" speedFactor="0.95" vaporized=""/>
    <tripinfo id="f_0_0.0" depart="2.00" departLane="A9B9_0" departPos="5.10" departSpeed="0.00" departDelay="0.00" arrival="187.00" arrivalLane="D9E9_0" arrivalPos="492.80" arrivalSpeed="11.13" duration="185.00" routeLength="1994.90" waitingTime="0.00" waitingCount="0" stopTime="0.00" timeLoss="11.81" rerouteNo="0" devices="tripinfo_f_0_0.0" vType="DEFAULT_VEHTYPE" speedFactor="0.83" vaporized=""/>
    <tripinfo id="f_0_27.6" depart="25.00" departLane="J4I4_0" departPos="5.10" departSpeed="0.00" departDelay="0.00" arrival="187.00" arrivalLane="G4F4_0" arrivalPos="492.80" arrivalSpeed="12.87" duration="162.00" routeLength="1994.90" waitingTime="0.00" waitingCount="0" stopTime="0.00" timeLoss="16.26" rerouteNo="0" devices="tripinfo_f_0_27.6" vType="DEFAULT_VEHTYPE" speedFactor="0.99" vaporized=""/>
    <tripinfo id="f_0_13.4" depart="15.00" departLane="G6G7_0" departPos="5.10" departSpeed="0.00" departDelay="1.00" arrival="188.00" arrivalLane="G9G10_0" arrivalPos="491.30" arrivalSpeed="16.05" duration="173.00" routeLength="1993.50" waitingTime="0.00" waitingCount="0" stopTime="0.00" timeLoss="50.65" rerouteNo="0" devices="tripinfo_f_0_13.4" vType="DEFAULT_VEHTYPE" speedFactor="1.18" vaporized=""/>
    <tripinfo id="f_0_0.1" depart="6.00" departLane="A9B9_0" departPos="5.10" departSpeed="0.00" departDelay="0.00" arrival="189.00" arrivalLane="D9E9_0" arrivalPos="492.80" arrivalSpeed="12.31" duration="183.00" routeLength="1994.90" waitingTime="0.00" waitingCount="0" stopTime="0.00" timeLoss="29.79" rerouteNo="0" devices="tripinfo_f_0_0.1" vType="DEFAULT_VEHTYPE" speedFactor="0.94" vaporized=""/>
    <tripinfo id="f_0_27.7" depart="28.00" departLane="J4I4_0" departPos="5.10" departSpeed="0.00" departDelay="1.00" arrival="189.00" arrivalLane="G4F4_0" arrivalPos="492.80" arrivalSpeed="13.01" duration="161.00" routeLength="1994.90" waitingTime="0.00" waitingCount="0" stopTime="0.00" timeLoss="19.99" rerouteNo="0" devices="tripinfo_f_0_27.7" vType="DEFAULT_VEHTYPE" speedFactor="1.02" vaporized=""/>
    <tripinfo id="f_0_0.2" depart="9.00" departLane="A9B9_0" departPos="5.10" departSpeed="0.00" departDelay="1.00" arrival="191.00" arrivalLane="D9E9_0" arrivalPos="492.80" arrivalSpeed="12.93" duration="182.00" routeLength="1994.90" waitingTime="0.00" waitingCount="0" stopTime="0.00" timeLoss="33.78" rerouteNo="0" devices="tripinfo_f_0_0.2" vType="DEFAULT_VEHTYPE" speedFactor="0.98" vaporized=""/>
    <tripinfo id="f_0_27.8" depart="31.00" departLane="J4I4_0" departPos="5.10" departSpeed="0.00" departDelay="1.00" arrival="191.00" arrivalLane="G4F4_0" arrivalPos="492.80" arrivalSpeed="13.99" duration="160.00" routeLength="1994.90" waitingTime="0.00" waitingCount="0" stopTime="0.00" timeLoss="26.96" rerouteNo="0" devices="tripinfo_f_0_27.8" vType="DEFAULT_VEHTYPE" speedFactor="1.09" vaporized=""/>
    <tripinfo id="f_0_0.3" depart="12.00" departLane="A9B9_0" departPos="5.10" departSpeed="0.00" departDelay="3.00" arrival="193.00" arrivalLane="D9E9_0" arrivalPos="492.80" arrivalSpeed="10.98" duration="181.00" routeLength="1994.90" waitingTime="0.00" waitingCount="0" stopTime="0.00" timeLoss="15.65" rerouteNo="0" devices="tripinfo_f_0_0.3" vType="DEFAULT_VEHTYPE" speedFactor="0.87" vaporized=""/>
    <tripinfo id="f_0_0.4" depart="15.00" departLane="A9B9_0" departPos="5.10" departSpeed="0.00" departDelay="5.00" arrival="194.00" arrivalLane="D9E9_0" arrivalPos="492.80" arrivalSpeed="12.77" duration="179.00" routeLength="1994.90" waitingTime="0.00" waitingCount="0" stopTime="0.00" timeLoss="57.08" rerouteNo="0" devices="tripinfo_f_0_0.4" vType="DEFAULT_VEHTYPE" speedFactor="1.18" vaporized=""/>
    <tripinfo id="f_0_27.9" depart="34.00" departLane="J4I4_0" departPos="5.10" departSpeed="0.00" departDelay="2.00" arrival="194.00" arrivalLane="G4F4_0" arrivalPos="492.80" arrivalSpeed="12.52" duration="160.00" routeLength="1994.90" waitingTime="0.00" waitingCount="0" stopTime="0.00" timeLoss="10.76" rerouteNo="0" devices="tripinfo_f_0_27.9" vType="DEFAULT_VEHTYPE" speedFactor="0.97" vaporized=""/>
    <tripinfo id="f_0_27.10" depart="37.00" departLane="J4I4_0" departPos="5.10" departSpeed="0.00" departDelay="4.00" arrival="195.00" arrivalLane="G4F4_0" arrivalPos="492.80" arrivalSpeed="13.79" duration="158.00" routeLength="1994.90" waitingTime="0.00" waitingCount="0" stopTime="0.00" timeLoss="14.56" rerouteNo="0" devices="tripinfo_f_0_27.10" vType="DEFAULT_VEHTYPE" speedFactor="1.00" vaporized=""/>
    <tripinfo id="f_0_0.5" depart="20.00" departLane="A9B9_0" departPos="5.10" departSpeed="0.00" departDelay="0.00" arrival="196.00" arrivalLane="D9E9_0" arrivalPos="492.80" arrivalSpeed="11.81" duration="176.00" routeLength="1994.90" waitingTime="0.00" waitingCount="0" stopTime="0.00" timeLoss="16.26" rerouteNo="0" devices="tripinfo_f_0_0.5" vType="DEFAULT_VEHTYPE" speedFactor="0.90" vaporized=""/>
    <tripinfo id="f_0_13.5" depart="21.00" departLane="G6G7_0" departPos="5.10" departSpeed="0.00" departDelay="0.00" arrival="197.00" arrivalLane="G9G10_0" arrivalPos="491.30" arrivalSpeed="12.16" duration="176.00" routeLength="1993.50" waitingTime="0.00" waitingCount="0" stopTime="0.00" timeLoss="11.82" rerouteNo="0" devices="tripinfo_f_0_13.5" vType="DEFAULT_VEHTYPE" speedFactor="0.88" vaporized=""/>
    <tripinfo id="f_0_16.3" depart="11.00" departLane="A5B5_0" departPos="5.10" departSpeed="0.00" departDelay="3.00" arrival="198.00" arrivalLane="D5E5_0" arrivalPos="492.80" arrivalSpeed="11.43" duration="187.00" routeLength="1994.90" waitingTime="0.00" waitingCount="0" stopTime="0.00" timeLoss="12.81" rerouteNo="0" devices="tripinfo_f_0_16.3" vType="DEFAULT_VEHTYPE" speedFactor="0.83" vaporized=""/>
    <tripinfo id="f_0_0.6" depart="23.00" departLane="A9B9_0" departPos="5.10" departSpeed="0.00" departDelay="0.00" arrival="198.00" arrivalLane="D9E9_0" arrivalPos="492.80" arrivalSpeed="14.41" duration="175.00" routeLength="1994.90" waitingTime="0.00" waitingCount="0" stopTime="0.00" timeLoss="43.23" rerouteNo="0" devices="tripinfo_f_0_0.6" vType="DEFAULT_VEHTYPE" speedFactor="1.10" vaporized=""/>
    <tripinfo id="f_0_16.4" depart="14.00" departLane="A5B5_0" departPos="5.10" departSpeed="0.00" departDelay="5.00" arrival="200.00" arrivalLane="D5E5_0" arrivalPos="492.80" arrivalSpeed="14.95" duration="186.00" routeLength="1994.90" waitingTime="0.00" waitingCount="0" stopTime="0.00" timeLoss="58.55" rerouteNo="0" devices="tripinfo_f_0_16.4" vType="DEFAULT_VEHTYPE" speedFactor="1.13" vaporized=""/>
    <tripinfo id="f_0_0.7" depart="27.00" departLane="A9B9_0" departPos="5.10" departSpeed="0.00" departDelay="0.00" arrival="200.00" arrivalLane="D9E9_0" arrivalPos="492.80" arrivalSpeed="11.56" duration="173.00" routeLength="1994.90" waitingTime="0.00" waitingCount="0" stopTime="0.00" timeLoss="14.04" rerouteNo="0" devices="tripinfo_f_0_0.7" vType="DEFAULT_VEHTYPE" speedFactor="0.91" vaporized=""/>
    <tripinfo id="f_0_0.8" depart="30.00" departLane="A9B9_0" departPos="5.10" departSpeed="0.00" departDelay="1.00" arrival="201.00" arrivalLane="D9E9_0" arrivalPos="492.80" arrivalSpeed="13.62" duration="171.00" routeLength="1994.90" waitingTime="0.00" waitingCount="0" stopTime="0.00" timeLoss="34.95" rerouteNo="0" devices="tripinfo_f_0_0.8" vType="DEFAULT_VEHTYPE" speedFactor="1.06" vaporized=""/>
    <tripinfo id="f_0_16.5" depart="17.00" departLane="A5B5_0" departPos="5.10" departSpeed="0.00" departDelay="6.00" arrival="202.00" arrivalLane="D5E5_0" arrivalPos="492.80" arrivalSpeed="13.02" duration="185.00" routeLength="1994.90" waitingTime="0.00" waitingCount="0" stopTime="0.00" timeLoss="41.33" rerouteNo="0" devices="tripinfo_f_0_16.5" vType="DEFAULT_VEHTYPE" speedFactor="1.01" vaporized=""/>
    <tripinfo id="f_0_16.6" depart="20.00" departLane="A5B5_0" departPos="5.10" departSpeed="0.00" departDelay="4.00" arrival="203.00" arrivalLane="D5E5_0" arrivalPos="492.80" arrivalSpeed="12.10" duration="183.00" routeLength="1994.90" waitingTime="0.00" waitingCount="0" stopTime="0.00" timeLoss="32.90" rerouteNo="0" devices="tripinfo_f_0_16.6" vType="DEFAULT_VEHTYPE" speedFactor="0.96" vaporized=""/>
    <tripinfo id="f_0_0.9" depart="33.00" departLane="A9B9_0" departPos="5.10" departSpeed="0.00" departDelay="3.00" arrival="203.00" arrivalLane="D9E9_0" arrivalPos="492.80" arrivalSpeed="12.65" duration="170.00" routeLength="1994.90" waitingTime="0.00" waitingCount="0" stopTime="0.00" timeLoss="19.44" rerouteNo="0" devices="tripinfo_f_0_0.9" vType="DEFAULT_VEHTYPE" speedFactor="0.96" vaporized=""/>
    <tripinfo id="f_0_13.6" depart="24.00" departLane="G6G7_0" departPos="5.10" departSpeed="0.00" departDelay="2.00" arrival="204.00" arrivalLane="G9G10_0" arrivalPos="491.30" arrivalSpeed="10.90" duration="180.00" routeLength="1993.50" waitingTime="0.00" waitingCount="0" stopTime="0.00" timeLoss="11.65" rerouteNo="0" devices="tripinfo_f_0_13.6" vType="DEFAULT_VEHTYPE" speedFactor="0.85" vaporized=""/>
    <tripinfo id="f_0_16.7" depart="23.00" departLane="A5B5_0" departPos="5.10" departSpeed="0.00" departDelay="5.00" arrival="205.00" arrivalLane="D5E5_0" arrivalPos="492.80" arrivalSpeed="13.72" duration="182.00" routeLength="1994.90" waitingTime="0.00" waitingCount="0" stopTime="0.00" timeLoss="43.91" rerouteNo="0" devices="tripinfo_f_0_16.7" vType="DEFAULT_VEHTYPE" speedFactor="1.04" vaporized=""/>
    <tripinfo id="f_0_0.10" depart="36.00" departLane="A9B9_0" departPos="5.10" departSpeed="0.00" departDelay="3.00" arrival="205.00" arrivalLane="D9E9_0" arrivalPos="492.80" arrivalSpeed="15.24" duration="169.00" routeLength="1994.90" waitingTime="0.00" waitingCount="0" stopTime="0.00" timeLoss="43.17" rerouteNo="0" devices="tripinfo_f_0_0.10" vType="DEFAULT_VEHTYPE" speedFactor="1.15" vaporized=""/>
    <tripinfo id="f_0_13.7" depart="27.00" departLane="G6G7_0" departPos="5.10" departSpeed="0.00" departDelay="4.00" arrival="206.00" arrivalLane="G9G10_0" arrivalPos="491.30" arrivalSpeed="11.78" duration="179.00" routeLength="1993.50" waitingTime="0.00" waitingCount="0" stopTime="0.00" timeLoss="18.63" rerouteNo="0" devices="tripinfo_f_0_13.7" vType="DEFAULT_VEHTYPE" speedFactor="0.90" vaporized=""/>
    <tripinfo id="f_0_16.8" depart="26.00" departLane="A5B5_0" departPos="5.10" departSpeed="0.00" departDelay="7.00" arrival="207.00" arrivalLane="D5E5_0" arrivalPos="492.80" arrivalSpeed="13.70" duration="181.00" routeLength="1994.90" waitingTime="0.00" waitingCount="0" stopTime="0.00" timeLoss="36.25" rerouteNo="0" devices="tripinfo_f_0_16.8" vType="DEFAULT_VEHTYPE" speedFactor="1.00" vaporized=""/>
    <tripinfo id="f_0_13.8" depart="30.00" departLane="G6G7_0" departPos="5.10" departSpeed="0.00" departDelay="5.00" arrival="207.00" arrivalLane="G9G10_0" arrivalPos="491.30" arrivalSpeed="13.40" duration="177.00" routeLength="1993.50" waitingTime="0.00" waitingCount="0" stopTime="0.00" timeLoss="35.63" rerouteNo="0" devices="tripinfo_f_0_13.8" vType="DEFAULT_VEHTYPE" speedFactor="1.02" vaporized=""/>
    <tripinfo id="f_0_0.11" depart="39.00" departLane="A9B9_0" departPos="5.10" departSpeed="0.00" departDelay="4.00" arrival="207.00" arrivalLane="D9E9_0" arrivalPos="492.80" arrivalSpeed="13.86" duration="168.00" routeLength="1994.90" waitingTime="0.00" waitingCount="0" stopTime="0.00" timeLoss="24.45" rerouteNo="0" devices="tripinfo_f_0_0.11" vType="DEFAULT_VEHTYPE" speedFactor="1.01" vaporized=""/>
    <tripinfo id="f_0_0.12" depart="42.00" departLane="A9B9_0" departPos="5.10" departSpeed="0.00" departDelay="0.00" arrival="208.00" arrivalLane="D9E9_0" arrivalPos="492.80" arrivalSpeed="14.75" duration="166.00" routeLength="1994.90" waitingTime="0.00" waitingCount="0" stopTime="0.00" timeLoss="31.83" rerouteNo="0" devices="tripinfo_f_0_0.12" vType="DEFAULT_VEHTYPE" speedFactor="1.07" vaporized=""/>
    <tripinfo id="f_0_13.9" depart="33.00" departLane="G6G7_0" departPos="5.10" departSpeed="0.00" departDelay="7.00" arrival="210.00" arrivalLane="G9G10_0" arrivalPos="491.30" arrivalSpeed="11.46" duration="177.00" routeLength="1993.50" waitingTime="0.00" waitingCount="0" stopTime="0.00" timeLoss="13.46" rerouteNo="0" devices="tripinfo_f_0_13.9" vType="DEFAULT_VEHTYPE" speedFactor="0.88" vaporized=""/>
    <tripinfo id="f_0_16.9" depart="29.00" departLane="A5B5_0" departPos="5.10" departSpeed="0.00" departDelay="8.00" arrival="211.00" arrivalLane="D5E5_0" arrivalPos="492.80" arrivalSpeed="11.10" duration="182.00" routeLength="1994.90" waitingTime="0.00" waitingCount="0" stopTime="0.00" timeLoss="12.23" rerouteNo="0" devices="tripinfo_f_0_16.9" vType="DEFAULT_VEHTYPE" speedFactor="0.85" vaporized=""/>
    <tripinfo id="f_0_13.10" depart="36.00" departLane="G6G7_0" departPos="5.10" departSpeed="0.00" departDelay="9.00" arrival="211.00" arrivalLane="G9G10_0" arrivalPos="491.30" arrivalSpeed="12.43" duration="175.00" routeLength="1993.50" waitingTime="0.00" waitingCount="0" stopTime="0.00" timeLoss="17.90" rerouteNo="0" devices="tripinfo_f_0_13.10" vType="DEFAULT_VEHTYPE" speedFactor="0.91" vaporized=""/>
    <tripinfo id="f_0_16.10" depart="32.00" departLane="A5B5_0" departPos="5.10" departSpeed="0.00" departDelay="8.00" arrival="212.00" arrivalLane="D5E5_0" arrivalPos="492.80" arrivalSpeed="11.52" duration="180.00" routeLength="1994.90" waitingTime="0.00" waitingCount="0" stopTime="0.00" timeLoss="47.21" rerouteNo="0" devices="tripinfo_f_0_16.10" vType="DEFAULT_VEHTYPE" speedFactor="1.08" vaporized=""/>
    <tripinfo id="f_0_13.11" depart="39.00" departLane="G6G7_0" departPos="5.10" departSpeed="0.00" departDelay="11.00" arrival="213.00" arrivalLane="G9G10_0" arrivalPos="491.30" arrivalSpeed="12.97" duration="174.00" routeLength="1993.50" waitingTime="0.00" waitingCount="0" stopTime="0.00" timeLoss="33.36" rerouteNo="0" devices="tripinfo_f_0_13.11" vType="DEFAULT_VEHTYPE" speedFactor="1.02" vaporized=""/>
    <tripinfo id="f_0_27.11" depart="40.00" departLane="J4I4_0" departPos="5.10" departSpeed="0.00" departDelay="3.00" arrival="213.00" arrivalLane="G4F4_0" arrivalPos="492.80" arrivalSpeed="12.22" duration="173.00" routeLength="1994.90" waitingTime="0.00" waitingCount="0" stopTime="0.00" timeLoss="11.72" rerouteNo="0" devices="tripinfo_f_0_27.11" vType="DEFAULT_VEHTYPE" speedFactor="0.89" vaporized=""/>
    <tripinfo id="f_0_16.11" depart="35.00" departLane="A5B5_0" departPos="5.10" departSpeed="0.00" departDelay="5.00" arrival="214.00" arrivalLane="D5E5_0" arrivalPos="492.80" arrivalSpeed="12.57" duration="179.00" routeLength="1994.90" waitingTime="0.00" waitingCount="0" stopTime="0.00" timeLoss="32.36" rerouteNo="0" devices="tripinfo_f_0_16.11" vType="DEFAULT_VEHTYPE" speedFactor="0.98" vaporized=""/>
    <tripinfo id="f_0_13.12" depart="42.00" departLane="G6G7_0" departPos="5.10" departSpeed="0.00" departDelay="12.00" arrival="215.00" arrivalLane="G9G10_0" arrivalPos="491.30" arrivalSpeed="14.33" duration="173.00" routeLength="1993.50" waitingTime="0.00" waitingCount="0" stopTime="0.00" timeLoss="33.36" rerouteNo="0" devices="tripinfo_f_0_13.12" vType="DEFAULT_VEHTYPE" speedFactor="1.03" vaporized=""/>
    <tripinfo id="f_0_27.12" depart="43.00" departLane="J4I4_0" departPos="5.10" departSpeed="0.00" departDelay="5.00" arrival="215.00" arrivalLane="G4F4_0" arrivalPos="492.80" arrivalSpeed="12.58" duration="172.00" routeLength="1994.90" waitingTime="0.00" waitingCount="0" stopTime="0.00" timeLoss="15.73" rerouteNo="0" devices="tripinfo_f_0_27.12" vType="DEFAULT_VEHTYPE" speedFactor="0.92" vaporized=""/>
    <tripinfo id="f_0_16.12" depart="38.00" departLane="A5B5_0" departPos="5.10" departSpeed="0.00" departDelay="3.00" arrival="216.00" arrivalLane="D5E5_0" arrivalPos="492.80" arrivalSpeed="13.08" duration="178.00" routeLength="1994.90" waitingTime="0.00" waitingCount="0" stopTime="0.00" timeLoss="36.81" rerouteNo="0" devices="tripinfo_f_0_16.12" vType="DEFAULT_VEHTYPE" speedFactor="1.02" vaporized=""/>
    <tripinfo id="f_0_13.13" depart="45.00" departLane="G6G7_0" departPos="5.10" departSpeed="0.00" departDelay="12.00" arrival="217.00" arrivalLane="G9G10_0" arrivalPos="491.30" arrivalSpeed="13.06" duration="172.00" routeLength="1993.50" waitingTime="0.00" waitingCount="0" stopTime="0.00" timeLoss="24.11" rerouteNo="0" devices="tripinfo_f_0_13.13" vType="DEFAULT_VEHTYPE" speedFactor="0.98" vaporized=""/>
    <tripinfo id="f_0_27.13" depart="46.00" departLane="J4I4_0" departPos="5.10" departSpeed="0.00" departDelay="6.00" arrival="217.00" arrivalLane="G4F4_0" arrivalPos="492.80" arrivalSpeed="13.82" duration="171.00" routeLength="1994.90" waitingTime="0.00" waitingCount="0" stopTime="0.00" timeLoss="35.44" rerouteNo="0" devices="tripinfo_f_0_27.13" vType="DEFAULT_VEHTYPE" speedFactor="1.07" vaporized=""/>
    <tripinfo id="f_0_13.14" depart="48.00" departLane="G6G7_0" departPos="5.10" departSpeed="0.00" departDelay="9.00" arrival="218.00" arrivalLane="G9G10_0" arrivalPos="491.30" arrivalSpeed="14.63" duration="170.00" routeLength="1993.50" waitingTime="0.00" waitingCount="0" stopTime="0.00" timeLoss="34.11" rerouteNo="0" devices="tripinfo_f_0_13.14" vType="DEFAULT_VEHTYPE" speedFactor="1.06" vaporized=""/>
    <tripinfo id="f_0_31.0" depart="61.00" departLane="H2H3_0" departPos="5.10" departSpeed="0.00" departDelay="0.00" arrival="218.00" arrivalLane="H5H6_0" arrivalPos="492.80" arrivalSpeed="14.68" duration="157.00" routeLength="1994.90" waitingTime="7.00" waitingCount="1" stopTime="0.00" timeLoss="22.62" rerouteNo="0" devices="tripinfo_f_0_31.0" vType="DEFAULT_VEHTYPE" speedFactor="1.07" vaporized=""/>
    <tripinfo id="f_0_20.0" depart="63.00" departLane="C7C6_0" departPos="5.10" departSpeed="0.00" departDelay="0.00" arrival="218.00" arrivalLane="C4C3_0" arrivalPos="491.30" arrivalSpeed="13.69" duration="155.00" routeLength="1993.50" waitingTime="6.00" waitingCount="1" stopTime="0.00" timeLoss="21.84" rerouteNo="0" devices="tripinfo_f_0_20.0" vType="DEFAULT_VEHTYPE" speedFactor="1.08" vaporized=""/>
    <tripinfo id="f_0_25.1" depart="6.00" departLane="J5I5_0" departPos="5.10" departSpeed="0.00" departDelay="2.00" arrival="220.00" arrivalLane="G5F5_0" arrivalPos="492.80" arrivalSpeed="13.40" duration="214.00" routeLength="1994.90" waitingTime="48.00" waitingCount="2" stopTime="0.00" timeLoss="73.38" rerouteNo="0" devices="tripinfo_f_0_25.1" vType="DEFAULT_VEHTYPE" speedFactor="1.03" vaporized=""/>
    <tripinfo id="f_0_13.15" depart="51.00" departLane="G6G7_0" departPos="5.10" departSpeed="0.00" departDelay="11.00" arrival="220.00" arrivalLane="G9G10_0" arrivalPos="491.30" arrivalSpeed="15.10" duration="169.00" routeLength="1993.50" waitingTime="0.00" waitingCount="0" stopTime="0.00" timeLoss="37.78" rerouteNo="0" devices="tripinfo_f_0_13.15" vType="DEFAULT_VEHTYPE" speedFactor="1.10" vaporized=""/>
    <tripinfo id="f_0_15.0" depart="60.00" departLane="H6H7_0" departPos="5.10" departSpeed="0.00" departDelay="0.00" arrival="220.00" arrivalLane="H9H10_0" arrivalPos="491.30" arrivalSpeed="12.87" duration="160.00" routeLength="1993.50" waitingTime="0.00" waitingCount="0" stopTime="0.00" timeLoss="10.88" rerouteNo="0" devices="tripinfo_f_0_15.0" vType="DEFAULT_VEHTYPE" speedFactor="0.97" vaporized=""/>
    <tripinfo id="f_0_31.1" depart="64.00" departLane="H2H3_0" departPos="5.10" departSpeed="0.00" departDelay="0.00" arrival="220.00" arrivalLane="H5H6_0" arrivalPos="492.80" arrivalSpeed="13.93" duration="156.00" routeLength="1994.90" waitingTime="5.00" waitingCount="1" stopTime="0.00" timeLoss="22.19" rerouteNo="0" devices="tripinfo_f_0_31.1" vType="DEFAULT_VEHTYPE" speedFactor="1.08" vaporized=""/>
    <tripinfo id="f_0_20.1" depart="74.00" departLane="C7C6_0" departPos="5.10" departSpeed="0.00" departDelay="0.00" arrival="220.00" arrivalLane="C4C3_0" arrivalPos="491.30" arrivalSpeed="14.08" duration="146.00" routeLength="1993.50" waitingTime="0.00" waitingCount="0" stopTime="0.00" timeLoss="15.02" rerouteNo="0" devices="tripinfo_f_0_20.1" vType="DEFAULT_VEHTYPE" speedFactor="1.10" vaporized=""/>
    <tripinfo id="f_0_15.1" depart="63.00" departLane="H6H7_0" departPos="5.10" departSpeed="0.00" departDelay="0.00" arrival="221.00" arrivalLane="H9H10_0" arrivalPos="491.30" arrivalSpeed="14.57" duration="158.00" routeLength="1993.50" waitingTime="0.00" waitingCount="0" stopTime="0.00" timeLoss="36.22" rerouteNo="0" devices="tripinfo_f_0_15.1" vType="DEFAULT_VEHTYPE" speedFactor="1.18" vaporized=""/>
    <tripinfo id="f_0_12.3" depart="9.00" departLane="G11G10_0" departPos="5.10" departSpeed="0.00" departDelay="2.00" arrival="223.00" arrivalLane="G8G7_0" arrivalPos="492.80" arrivalSpeed="12.71" duration="214.00" routeLength="1994.90" waitingTime="41.00" waitingCount="1" stopTime="0.00" timeLoss="60.46" rerouteNo="0" devices="tripinfo_f_0_12.3" vType="DEFAULT_VEHTYPE" speedFactor="0.94" vaporized=""/>
    <tripinfo id="f_0_15.2" depart="66.00" departLane="H6H7_0" departPos="5.10" departSpeed="0.00" departDelay="2.00" arrival="223.00" arrivalLane="H9H10_0" arrivalPos="491.30" arrivalSpeed="15.85" duration="157.00" routeLength="1993.50" waitingTime="0.00" waitingCount="0" stopTime="0.00" timeLoss="30.85" rerouteNo="0" devices="tripinfo_f_0_15.2" vType="DEFAULT_VEHTYPE" speedFactor="1.14" vaporized=""/>
    <tripinfo id="f_0_18.1" depart="3.00" departLane="A4B4_0" departPos="5.10" departSpeed="0.00" departDelay="0.00" arrival="224.00" arrivalLane="D4E4_0" arrivalPos="492.80" arrivalSpeed="11.01" duration="221.00" routeLength="1994.90" waitingTime="42.00" waitingCount="1" stopTime="0.00" timeLoss="58.38" rerouteNo="0" devices="tripinfo_f_0_18.1" vType="DEFAULT_VEHTYPE" speedFactor="0.89" vaporized=""/>