<?xml version="1.0" encoding="UTF-8"?>

<!-- generated on 2024-08-16 22:33:31 by Eclipse SUMO sumo Version 1.12.0
<configuration xmlns:xsi="http://www.w3.org/2001/XMLSchema-instance" xsi:noNamespaceSchemaLocation="http://sumo.dlr.de/xsd/sumoConfiguration.xsd">

    <input>
        <net-file value="quad_actuated.net.xml"/>
        <route-files value="quad_1.rou.xml"/>
    </input>

    <output>
        <summary-output value="control_summaries//summary_quad_actuated_1.xml"/>
        <tripinfo-output value="control_summaries//tripinfos_quad_actuated_1.xml"/>
    </output>

    <processing>
        <time-to-teleport value="-1"/>
    </processing>

    <traci_server>
        <remote-port value="45109"/>
    </traci_server>

</configuration>
-->

<tripinfos xmlns:xsi="http://www.w3.org/2001/XMLSchema-instance" xsi:noNamespaceSchemaLocation="http://sumo.dlr.de/xsd/tripinfo_file.xsd">
    <tripinfo id="f_0_13.0" depart="4.00" departLane="G6G7_0" departPos="5.10" departSpeed="0.00" departDelay="0.00" arrival="152.00" arrivalLane="G9G10_0" arrivalPos="491.30" arrivalSpeed="15.09" duration="148.00" routeLength="1993.50" waitingTime="0.00" waitingCount="0" stopTime="0.00" timeLoss="15.69" rerouteNo="0" devices="tripinfo_f_0_13.0" vType="DEFAULT_VEHTYPE" speedFactor="1.09" vaporized=""/>
    <tripinfo id="f_0_12.0" depart="0.00" departLane="G11G10_0" departPos="5.10" departSpeed="0.00" departDelay="0.00" arrival="154.00" arrivalLane="G8G7_0" arrivalPos="492.80" arrivalSpeed="13.65" duration="154.00" routeLength="1994.90" waitingTime="3.00" waitingCount="1" stopTime="0.00" timeLoss="17.83" rerouteNo="0" devices="tripinfo_f_0_12.0" vType="DEFAULT_VEHTYPE" speedFactor="1.06" vaporized=""/>
    <tripinfo id="f_0_12.1" depart="3.00" departLane="G11G10_0" departPos="5.10" departSpeed="0.00" departDelay="2.00" arrival="155.00" arrivalLane="G8G7_0" arrivalPos="492.80" arrivalSpeed="14.77" duration="152.00" routeLength="1994.90" waitingTime="2.00" waitingCount="1" stopTime="0.00" timeLoss="19.31" rerouteNo="0" devices="tripinfo_f_0_12.1" vType="DEFAULT_VEHTYPE" speedFactor="1.08" vaporized=""/>
    <tripinfo id="f_0_12.2" depart="6.00" departLane="G11G10_0" departPos="5.10" departSpeed="0.00" departDelay="1.00" arrival="157.00" arrivalLane="G8G7_0" arrivalPos="492.80" arrivalSpeed="14.94" duration="151.00" routeLength="1994.90" waitingTime="0.00" waitingCount="0" stopTime="0.00" timeLoss="22.71" rerouteNo="0" devices="tripinfo_f_0_12.2" vType="DEFAULT_VEHTYPE" speedFactor="1.12" vaporized=""/>
    <tripinfo id="f_0_16.0" depart="2.00" departLane="A5B5_0" departPos="5.10" departSpeed="0.00" departDelay="0.00" arrival="158.00" arrivalLane="D5E5_0" arrivalPos="492.80" arrivalSpeed="13.82" duration="156.00" routeLength="1994.90" waitingTime="0.00" waitingCount="0" stopTime="0.00" timeLoss="18.37" rerouteNo="0" devices="tripinfo_f_0_16.0" vType="DEFAULT_VEHTYPE" speedFactor="1.05" vaporized=""/>
    <tripinfo id="f_0_27.0" depart="0.00" departLane="J4I4_0" departPos="5.10" departSpeed="0.00" departDelay="0.00" arrival="159.00" arrivalLane="G4F4_0" arrivalPos="492.80" arrivalSpeed="13.30" duration="159.00" routeLength="1994.90" waitingTime="0.00" waitingCount="0" stopTime="0.00" timeLoss="16.08" rerouteNo="0" devices="tripinfo_f_0_27.0" vType="DEFAULT_VEHTYPE" speedFactor="1.01" vaporized=""/>
    <tripinfo id="f_0_27.1" depart="3.00" departLane="J4I4_0" departPos="5.10" departSpeed="0.00" departDelay="2.00" arrival="160.00" arrivalLane="G4F4_0" arrivalPos="492.80" arrivalSpeed="13.97" duration="157.00" routeLength="1994.90" waitingTime="0.00" waitingCount="0" stopTime="0.00" timeLoss="17.50" rerouteNo="0" devices="tripinfo_f_0_27.1" vType="DEFAULT_VEHTYPE" speedFactor="1.03" vaporized=""/>
    <tripinfo id="f_0_13.1" depart="7.00" departLane="G6G7_0" departPos="5.10" departSpeed="0.00" departDelay="2.00" arrival="162.00" arrivalLane="G9G10_0" arrivalPos="491.30" arrivalSpeed="13.65" duration="155.00" routeLength="1993.50" waitingTime="0.00" waitingCount="0" stopTime="0.00" timeLoss="9.51" rerouteNo="0" devices="tripinfo_f_0_13.1" vType="DEFAULT_VEHTYPE" speedFactor="0.99" vaporized=""/>
    <tripinfo id="f_0_18.0" depart="0.00" departLane="A4B4_0" departPos="5.10" departSpeed="0.00" departDelay="0.00" arrival="171.00" arrivalLane="D4E4_0" arrivalPos="492.80" arrivalSpeed="12.31" duration="171.00" routeLength="1994.90" waitingTime="3.00" waitingCount="1" stopTime="0.00" timeLoss="17.39" rerouteNo="0" devices="tripinfo_f_0_18.0" vType="DEFAULT_VEHTYPE" speedFactor="0.94" vaporized=""/>
    <tripinfo id="f_0_25.0" depart="3.00" departLane="J5I5_0" departPos="5.10" departSpeed="0.00" departDelay="0.00" arrival="171.00" arrivalLane="G5F5_0" arrivalPos="492.80" arrivalSpeed="11.96" duration="168.00" routeLength="1994.90" waitingTime="0.00" waitingCount="0" stopTime="0.00" timeLoss="14.06" rerouteNo="0" devices="tripinfo_f_0_25.0" vType="DEFAULT_VEHTYPE" speedFactor="0.94" vaporized=""/>
    <tripinfo id="f_0_25.1" depart="6.00" departLane="J5I5_0" departPos="5.10" departSpeed="0.00" departDelay="2.00" arrival="172.00" arrivalLane="G5F5_0" arrivalPos="492.80" arrivalSpeed="13.75" duration="166.00" routeLength="1994.90" waitingTime="0.00" waitingCount="0" stopTime="0.00" timeLoss="25.84" rerouteNo="0" devices="tripinfo_f_0_25.1" vType="DEFAULT_VEHTYPE" speedFactor="1.03" vaporized=""/>
    <tripinfo id="f_0_27.2" depart="6.00" departLane="J4I4_0" departPos="5.10" departSpeed="0.00" departDelay="2.00" arrival="173.00" arrivalLane="G4F4_0" arrivalPos="492.80" arrivalSpeed="13.27" duration="167.00" routeLength="1994.90" waitingTime="8.00" waitingCount="1" stopTime="0.00" timeLoss="29.33" rerouteNo="0" devices="tripinfo_f_0_27.2" vType="DEFAULT_VEHTYPE" speedFactor="1.05" vaporized=""/>
    <tripinfo id="f_0_12.3" depart="9.00" departLane="G11G10_0" departPos="5.10" departSpeed="0.00" departDelay="2.00" arrival="173.00" arrivalLane="G8G7_0" arrivalPos="492.80" arrivalSpeed="12.84" duration="164.00" routeLength="1994.90" waitingTime="0.00" waitingCount="0" stopTime="0.00" timeLoss="10.37" rerouteNo="0" devices="tripinfo_f_0_12.3" vType="DEFAULT_VEHTYPE" speedFactor="0.94" vaporized=""/>
    <tripinfo id="f_0_27.3" depart="9.00" departLane="J4I4_0" departPos="5.10" departSpeed="0.00" departDelay="2.00" arrival="176.00" arrivalLane="G4F4_0" arrivalPos="492.80" arrivalSpeed="13.22" duration="167.00" routeLength="1994.90" waitingTime="6.00" waitingCount="1" stopTime="0.00" timeLoss="24.76" rerouteNo="0" devices="tripinfo_f_0_27.3" vType="DEFAULT_VEHTYPE" speedFactor="1.01" vaporized=""/>
    <tripinfo id="f_0_27.4" depart="17.00" departLane="J4I4_0" departPos="5.10" departSpeed="0.00" departDelay="0.00" arrival="178.00" arrivalLane="G4F4_0" arrivalPos="492.80" arrivalSpeed="13.81" duration="161.00" routeLength="1994.90" waitingTime="3.00" waitingCount="1" stopTime="0.00" timeLoss="22.18" rerouteNo="0" devices="tripinfo_f_0_27.4" vType="DEFAULT_VEHTYPE" speedFactor="1.04" vaporized=""/>
    <tripinfo id="f_0_12.4" depart="12.00" departLane="G11G10_0" departPos="5.10" departSpeed="0.00" departDelay="3.00" arrival="180.00" arrivalLane="G8G7_0" arrivalPos="492.80" arrivalSpeed="11.50" duration="168.00" routeLength="1994.90" waitingTime="0.00" waitingCount="0" stopTime="0.00" timeLoss="11.25" rerouteNo="0" devices="tripinfo_f_0_12.4" vType="DEFAULT_VEHTYPE" speedFactor="0.92" vaporized=""/>
    <tripinfo id="f_0_27.5" depart="22.00" departLane="J4I4_0" departPos="5.10" departSpeed="0.00" departDelay="0.00" arrival="180.00" arrivalLane="G4F4_0" arrivalPos="492.80" arrivalSpeed="13.14" duration="158.00" routeLength="1994.90" waitingTime="0.00" waitingCount="0" stopTime="0.00" timeLoss="16.19" rerouteNo="0" devices="tripinfo_f_0_27.5" vType="DEFAULT_VEHTYPE" speedFactor="1.02" vaporized=""/>
    <tripinfo id="f_0_16.1" depart="5.00" departLane="A5B5_0" departPos="5.10" departSpeed="0.00" departDelay="0.00" arrival="181.00" arrivalLane="D5E5_0" arrivalPos="492.80" arrivalSpeed="11.59" duration="176.00" routeLength="1994.90" waitingTime="2.00" waitingCount="1" stopTime="0.00" timeLoss="20.31" rerouteNo="0" devices="tripinfo_f_0_16.1" vType="DEFAULT_VEHTYPE" speedFactor="0.93" vaporized=""/>
    <tripinfo id="f_0_16.2" depart="8.00" departLane="A5B5_0" departPos="5.10" departSpeed="0.00" departDelay="1.00" arrival="182.00" arrivalLane="D5E5_0" arrivalPos="492.80" arrivalSpeed="15.27" duration="174.00" routeLength="1994.90" waitingTime="1.00" waitingCount="1" stopTime="0.00" timeLoss="49.75" rerouteNo="0" devices="tripinfo_f_0_16.2" vType="DEFAULT_VEHTYPE" speedFactor="1.16" vaporized=""/>
    <tripinfo id="f_0_27.6" depart="25.00" departLane="J4I4_0" departPos="5.10" departSpeed="0.00" departDelay="0.00" arrival="183.00" arrivalLane="G4F4_0" arrivalPos="492.80" arrivalSpeed="12.88" duration="158.00" routeLength="1994.90" waitingTime="0.00" waitingCount="0" stopTime="0.00" timeLoss="12.47" rerouteNo="0" devices="tripinfo_f_0_27.6" vType="DEFAULT_VEHTYPE" speedFactor="0.99" vaporized=""/>
    <tripinfo id="f_0_27.7" depart="28.00" departLane="J4I4_0" departPos="5.10" departSpeed="0.00" departDelay="1.00" arrival="185.00" arrivalLane="G4F4_0" arrivalPos="492.80" arrivalSpeed="13.15" duration="157.00" routeLength="1994.90" waitingTime="0.00" waitingCount="0" stopTime="0.00" timeLoss="16.17" rerouteNo="0" devices="tripinfo_f_0_27.7" vType="DEFAULT_VEHTYPE" speedFactor="1.02" vaporized=""/>
    <tripinfo id="f_0_13.2" depart="9.00" departLane="G6G7_0" departPos="5.10" departSpeed="0.00" departDelay="1.00" arrival="187.00" arrivalLane="G9G10_0" arrivalPos="491.30" arrivalSpeed="11.43" duration="178.00" routeLength="1993.50" waitingTime="0.00" waitingCount="0" stopTime="0.00" timeLoss="15.89" rerouteNo="0" devices="tripinfo_f_0_13.2" vType="DEFAULT_VEHTYPE" speedFactor="0.89" vaporized=""/>
    <tripinfo id="f_0_27.8" depart="31.00" departLane="J4I4_0" departPos="5.10" departSpeed="0.00" departDelay="1.00" arrival="187.00" arrivalLane="G4F4_0" arrivalPos="492.80" arrivalSpeed="14.94" duration="156.00" routeLength="1994.90" waitingTime="0.00" waitingCount="0" stopTime="0.00" timeLoss="23.16" rerouteNo="0" devices="tripinfo_f_0_27.8" vType="DEFAULT_VEHTYPE" speedFactor="1.09" vaporized=""/>
    <tripinfo id="f_0_13.3" depart="12.00" departLane="G6G7_0" departPos="5.10" departSpeed="0.00" departDelay="3.00" arrival="188.00" arrivalLane="G9G10_0" arrivalPos="491.30" arrivalSpeed="13.12" duration="176.00" routeLength="1993.50" waitingTime="0.00" waitingCount="0" stopTime="0.00" timeLoss="24.61" rerouteNo="0" devices="tripinfo_f_0_13.3" vType="DEFAULT_VEHTYPE" speedFactor="0.95" vaporized=""/>
    <tripinfo id="f_0_0.0" depart="2.00" departLane="A9B9_0" departPos="5.10" departSpeed="0.00" departDelay="0.00" arrival="189.00" arrivalLane="D9E9_0" arrivalPos="492.80" arrivalSpeed="11.14" duration="187.00" routeLength="1994.90" waitingTime="0.00" waitingCount="0" stopTime="0.00" timeLoss="13.80" rerouteNo="0" devices="tripinfo_f_0_0.0" vType="DEFAULT_VEHTYPE" speedFactor="0.83" vaporized=""/>
    <tripinfo id="f_0_18.1" depart="3.00" departLane="A4B4_0" departPos="5.10" departSpeed="0.00" departDelay="0.00" arrival="190.00" arrivalLane="D4E4_0" arrivalPos="492.80" arrivalSpeed="12.16" duration="187.00" routeLength="1994.90" waitingTime="7.00" waitingCount="1" stopTime="0.00" timeLoss="24.75" rerouteNo="0" devices="tripinfo_f_0_18.1" vType="DEFAULT_VEHTYPE" speedFactor="0.89" vaporized=""/>
    <tripinfo id="f_0_0.1" depart="6.00" departLane="A9B9_0" departPos="5.10" departSpeed="0.00" departDelay="0.00" arrival="191.00" arrivalLane="D9E9_0" arrivalPos="492.80" arrivalSpeed="12.67" duration="185.00" routeLength="1994.90" waitingTime="0.00" waitingCount="0" stopTime="0.00" timeLoss="31.72" rerouteNo="0" devices="tripinfo_f_0_0.1" vType="DEFAULT_VEHTYPE" speedFactor="0.94" vaporized=""/>
    <tripinfo id="f_0_0.2" depart="9.00" departLane="A9B9_0" departPos="5.10" departSpeed="0.00" departDelay="1.00" arrival="192.00" arrivalLane="D9E9_0" arrivalPos="492.80" arrivalSpeed="12.79" duration="183.00" routeLength="1994.90" waitingTime="0.00" waitingCount="0" stopTime="0.00" timeLoss="35.64" rerouteNo="0" devices="tripinfo_f_0_0.2" vType="DEFAULT_VEHTYPE" speedFactor="0.98" vaporized=""/>
    <tripinfo id="f_0_18.2" depart="9.00" departLane="A4B4_0" departPos="5.10" departSpeed="0.00" departDelay="0.00" arrival="192.00" arrivalLane="D4E4_0" arrivalPos="492.80" arrivalSpeed="11.78" duration="183.00" routeLength="1994.90" waitingTime="5.00" waitingCount="1" stopTime="0.00" timeLoss="28.40" rerouteNo="0" devices="tripinfo_f_0_18.2" vType="DEFAULT_VEHTYPE" speedFactor="0.93" vaporized=""/>
    <tripinfo id="f_0_25.2" depart="9.00" departLane="J5I5_0" departPos="5.10" departSpeed="0.00" departDelay="4.00" arrival="193.00" arrivalLane="G5F5_0" arrivalPos="492.80" arrivalSpeed="11.67" duration="184.00" routeLength="1994.90" waitingTime="3.00" waitingCount="1" stopTime="0.00" timeLoss="20.01" rerouteNo="0" devices="tripinfo_f_0_25.2" vType="DEFAULT_VEHTYPE" speedFactor="0.88" vaporized=""/>
    <tripinfo id="f_0_18.3" depart="13.00" departLane="A4B4_0" departPos="5.10" departSpeed="0.00" departDelay="0.00" arrival="194.00" arrivalLane="D4E4_0" arrivalPos="492.80" arrivalSpeed="13.63" duration="181.00" routeLength="1994.90" waitingTime="4.00" waitingCount="1" stopTime="0.00" timeLoss="39.35" rerouteNo="0" devices="tripinfo_f_0_18.3" vType="DEFAULT_VEHTYPE" speedFactor="1.02" vaporized=""/>
    <tripinfo id="f_0_13.4" depart="15.00" departLane="G6G7_0" departPos="5.10" departSpeed="0.00" departDelay="1.00" arrival="194.00" arrivalLane="G9G10_0" arrivalPos="491.30" arrivalSpeed="16.33" duration="179.00" routeLength="1993.50" waitingTime="14.00" waitingCount="2" stopTime="0.00" timeLoss="57.05" rerouteNo="0" devices="tripinfo_f_0_13.4" vType="DEFAULT_VEHTYPE" speedFactor="1.18" vaporized=""/>
    <tripinfo id="f_0_25.3" depart="12.00" departLane="J5I5_0" departPos="5.10" departSpeed="0.00" departDelay="5.00" arrival="195.00" arrivalLane="G5F5_0" arrivalPos="492.80" arrivalSpeed="14.07" duration="183.00" routeLength="1994.90" waitingTime="4.00" waitingCount="1" stopTime="0.00" timeLoss="41.17" rerouteNo="0" devices="tripinfo_f_0_25.3" vType="DEFAULT_VEHTYPE" speedFactor="1.02" vaporized=""/>
    <tripinfo id="f_0_0.3" depart="12.00" departLane="A9B9_0" departPos="5.10" departSpeed="0.00" departDelay="3.00" arrival="195.00" arrivalLane="D9E9_0" arrivalPos="492.80" arrivalSpeed="11.91" duration="183.00" routeLength="1994.90" waitingTime="0.00" waitingCount="0" stopTime="0.00" timeLoss="17.46" rerouteNo="0" devices="tripinfo_f_0_0.3" vType="DEFAULT_VEHTYPE" speedFactor="0.87" vaporized=""/>
    <tripinfo id="f_0_18.4" depart="16.00" departLane="A4B4_0" departPos="5.10" departSpeed="0.00" departDelay="2.00" arrival="195.00" arrivalLane="D4E4_0" arrivalPos="492.80" arrivalSpeed="14.83" duration="179.00" routeLength="1994.90" waitingTime="3.00" waitingCount="1" stopTime="0.00" timeLoss="48.48" rerouteNo="0" devices="tripinfo_f_0_18.4" vType="DEFAULT_VEHTYPE" speedFactor="1.10" vaporized=""/>
    <tripinfo id="f_0_0.4" depart="15.00" departLane="A9B9_0" departPos="5.10" departSpeed="0.00" departDelay="5.00" arrival="196.00" arrivalLane="D9E9_0" arrivalPos="492.80" arrivalSpeed="11.91" duration="181.00" routeLength="1994.90" waitingTime="0.00" waitingCount="0" stopTime="0.00" timeLoss="59.00" rerouteNo="0" devices="tripinfo_f_0_0.4" vType="DEFAULT_VEHTYPE" speedFactor="1.18" vaporized=""/>
    <tripinfo id="f_0_25.4" depart="15.00" departLane="J5I5_0" departPos="5.10" departSpeed="0.00" departDelay="4.00" arrival="196.00" arrivalLane="G5F5_0" arrivalPos="492.80" arrivalSpeed="14.94" duration="181.00" routeLength="1994.90" waitingTime="2.00" waitingCount="1" stopTime="0.00" timeLoss="58.29" rerouteNo="0" devices="tripinfo_f_0_25.4" vType="DEFAULT_VEHTYPE" speedFactor="1.17" vaporized=""/>
    <tripinfo id="f_0_12.5" depart="23.00" departLane="G11G10_0" departPos="5.10" departSpeed="0.00" departDelay="0.00" arrival="196.00" arrivalLane="G8G7_0" arrivalPos="492.80" arrivalSpeed="13.52" duration="173.00" routeLength="1994.90" waitingTime="7.00" waitingCount="2" stopTime="0.00" timeLoss="28.44" rerouteNo="0" devices="tripinfo_f_0_12.5" vType="DEFAULT_VEHTYPE" speedFactor="1.00" vaporized=""/>
    <tripinfo id="f_0_18.5" depart="22.00" departLane="A4B4_0" departPos="5.10" departSpeed="0.00" departDelay="0.00" arrival="197.00" arrivalLane="D4E4_0" arrivalPos="492.80" arrivalSpeed="16.21" duration="175.00" routeLength="1994.90" waitingTime="2.00" waitingCount="1" stopTime="0.00" timeLoss="51.43" rerouteNo="0" devices="tripinfo_f_0_18.5" vType="DEFAULT_VEHTYPE" speedFactor="1.17" vaporized=""/>
    <tripinfo id="f_0_1.0" depart="4.00" departLane="F9E9_0" departPos="5.10" departSpeed="0.00" departDelay="0.00" arrival="198.00" arrivalLane="C9B9_0" arrivalPos="491.30" arrivalSpeed="11.87" duration="194.00" routeLength="1993.50" waitingTime="6.00" waitingCount="1" stopTime="0.00" timeLoss="26.35" rerouteNo="0" devices="tripinfo_f_0_1.0" vType="DEFAULT_VEHTYPE" speedFactor="0.86" vaporized=""/>
    <tripinfo id="f_0_25.5" depart="18.00" departLane="J5I5_0" departPos="5.10" departSpeed="0.00" departDelay="3.00" arrival="198.00" arrivalLane="G5F5_0" arrivalPos="492.80" arrivalSpeed="13.68" duration="180.00" routeLength="1994.90" waitingTime="2.00" waitingCount="1" stopTime="0.00" timeLoss="40.33" rerouteNo="0" devices="tripinfo_f_0_25.5" vType="DEFAULT_VEHTYPE" speedFactor="1.03" vaporized=""/>
    <tripinfo id="f_0_0.5" depart="20.00" departLane="A9B9_0" departPos="5.10" departSpeed="0.00" departDelay="0.00" arrival="198.00" arrivalLane="D9E9_0" arrivalPos="492.80" arrivalSpeed="11.82" duration="178.00" routeLength="1994.90" waitingTime="0.00" waitingCount="0" stopTime="0.00" timeLoss="18.13" rerouteNo="0" devices="tripinfo_f_0_0.5" vType="DEFAULT_VEHTYPE" speedFactor="0.90" vaporized=""/>
    <tripinfo id="f_0_12.6" depart="26.00" departLane="G11G10_0" departPos="5.10" departSpeed="0.00" departDelay="2.00" arrival="199.00" arrivalLane="G8G7_0" arrivalPos="492.80" arrivalSpeed="12.17" duration="173.00" routeLength="1994.90" waitingTime="2.00" waitingCount="1" stopTime="0.00" timeLoss="24.53" rerouteNo="0" devices="tripinfo_f_0_12.6" vType="DEFAULT_VEHTYPE" speedFactor="0.97" vaporized=""/>
    <tripinfo id="f_0_18.6" depart="27.00" departLane="A4B4_0" departPos="5.10" departSpeed="0.00" departDelay="0.00" arrival="199.00" arrivalLane="D4E4_0" arrivalPos="492.80" arrivalSpeed="13.52" duration="172.00" routeLength="1994.90" waitingTime="2.00" waitingCount="1" stopTime="0.00" timeLoss="33.14" rerouteNo="0" devices="tripinfo_f_0_18.6" vType="DEFAULT_VEHTYPE" speedFactor="1.04" vaporized=""/>
    <tripinfo id="f_0_1.1" depart="10.00" departLane="F9E9_0" departPos="5.10" departSpeed="0.00" departDelay="0.00" arrival="200.00" arrivalLane="C9B9_0" arrivalPos="491.30" arrivalSpeed="14.81" duration="190.00" routeLength="1993.50" waitingTime="4.00" waitingCount="1" stopTime="0.00" timeLoss="65.07" rerouteNo="0" devices="tripinfo_f_0_1.1" vType="DEFAULT_VEHTYPE" speedFactor="1.15" vaporized=""/>
    <tripinfo id="f_0_0.6" depart="23.00" departLane="A9B9_0" departPos="5.10" departSpeed="0.00" departDelay="0.00" arrival="200.00" arrivalLane="D9E9_0" arrivalPos="492.80" arrivalSpeed="14.78" duration="177.00" routeLength="1994.90" waitingTime="0.00" waitingCount="0" stopTime="0.00" timeLoss="45.10" rerouteNo="0" devices="tripinfo_f_0_0.6" vType="DEFAULT_VEHTYPE" speedFactor="1.10" vaporized=""/>
    <tripinfo id="f_0_25.6" depart="23.00" departLane="J5I5_0" departPos="5.10" departSpeed="0.00" departDelay="0.00" arrival="200.00" arrivalLane="G5F5_0" arrivalPos="492.80" arrivalSpeed="15.48" duration="177.00" routeLength="1994.90" waitingTime="1.00" waitingCount="1" stopTime="0.00" timeLoss="50.53" rerouteNo="0" devices="tripinfo_f_0_25.6" vType="DEFAULT_VEHTYPE" speedFactor="1.14" vaporized=""/>
    <tripinfo id="f_0_18.7" depart="30.00" departLane="A4B4_0" departPos="5.10" departSpeed="0.00" departDelay="2.00" arrival="201.00" arrivalLane="D4E4_0" arrivalPos="492.80" arrivalSpeed="13.18" duration="171.00" routeLength="1994.90" waitingTime="3.00" waitingCount="1" stopTime="0.00" timeLoss="22.75" rerouteNo="0" devices="tripinfo_f_0_18.7" vType="DEFAULT_VEHTYPE" speedFactor="0.97" vaporized=""/>
    <tripinfo id="f_0_12.7" depart="31.00" departLane="G11G10_0" departPos="5.10" departSpeed="0.00" departDelay="0.00" arrival="201.00" arrivalLane="G8G7_0" arrivalPos="492.80" arrivalSpeed="13.82" duration="170.00" routeLength="1994.90" waitingTime="0.00" waitingCount="0" stopTime="0.00" timeLoss="25.29" rerouteNo="0" devices="tripinfo_f_0_12.7" vType="DEFAULT_VEHTYPE" speedFactor="1.00" vaporized=""/>
    <tripinfo id="f_0_1.2" depart="13.00" departLane="F9E9_0" departPos="5.10" departSpeed="0.00" departDelay="0.00" arrival="202.00" arrivalLane="C9B9_0" arrivalPos="491.30" arrivalSpeed="13.69" duration="189.00" routeLength="1993.50" waitingTime="3.00" waitingCount="1" stopTime="0.00" timeLoss="43.99" rerouteNo="0" devices="tripinfo_f_0_1.2" vType="DEFAULT_VEHTYPE" speedFactor="0.99" vaporized=""/>
    <tripinfo id="f_0_25.7" depart="28.00" departLane="J5I5_0" departPos="5.10" departSpeed="0.00" departDelay="0.00" arrival="202.00" arrivalLane="G5F5_0" arrivalPos="492.80" arrivalSpeed="12.13" duration="174.00" routeLength="1994.90" waitingTime="0.00" waitingCount="0" stopTime="0.00" timeLoss="20.64" rerouteNo="0" devices="tripinfo_f_0_25.7" vType="DEFAULT_VEHTYPE" speedFactor="0.94" vaporized=""/>
    <tripinfo id="f_0_12.8" depart="34.00" departLane="G11G10_0" departPos="5.10" departSpeed="0.00" departDelay="0.00" arrival="202.00" arrivalLane="G8G7_0" arrivalPos="492.80" arrivalSpeed="14.19" duration="168.00" routeLength="1994.90" waitingTime="1.00" waitingCount="1" stopTime="0.00" timeLoss="30.16" rerouteNo="0" devices="tripinfo_f_0_12.8" vType="DEFAULT_VEHTYPE" speedFactor="1.04" vaporized=""/>
    <tripinfo id="f_0_1.3" depart="16.00" departLane="F9E9_0" departPos="5.10" departSpeed="0.00" departDelay="2.00" arrival="203.00" arrivalLane="C9B9_0" arrivalPos="491.30" arrivalSpeed="13.34" duration="187.00" routeLength="1993.50" waitingTime="3.00" waitingCount="1" stopTime="0.00" timeLoss="39.50" rerouteNo="0" devices="tripinfo_f_0_1.3" vType="DEFAULT_VEHTYPE" speedFactor="0.97" vaporized=""/>
    <tripinfo id="f_0_18.8" depart="33.00" departLane="A4B4_0" departPos="5.10" departSpeed="0.00" departDelay="3.00" arrival="203.00" arrivalLane="D4E4_0" arrivalPos="492.80" arrivalSpeed="12.78" duration="170.00" routeLength="1994.90" waitingTime="2.00" waitingCount="1" stopTime="0.00" timeLoss="26.58" rerouteNo="0" devices="tripinfo_f_0_18.8" vType="DEFAULT_VEHTYPE" speedFactor="1.01" vaporized=""/>
    <tripinfo id="f_0_25.8" depart="32.00" departLane="J5I5_0" departPos="5.10" departSpeed="0.00" departDelay="0.00" arrival="204.00" arrivalLane="G5F5_0" arrivalPos="492.80" arrivalSpeed="13.31" duration="172.00" routeLength="1994.90" waitingTime="0.00" waitingCount="0" stopTime="0.00" timeLoss="29.89" rerouteNo="0" devices="tripinfo_f_0_25.8" vType="DEFAULT_VEHTYPE" speedFactor="1.02" vaporized=""/>
    <tripinfo id="f_0_12.9" depart="39.00" departLane="G11G10_0" departPos="5.10" departSpeed="0.00" departDelay="0.00" arrival="204.00" arrivalLane="G8G7_0" arrivalPos="492.80" arrivalSpeed="14.03" duration="165.00" routeLength="1994.90" waitingTime="0.00" waitingCount="0" stopTime="0.00" timeLoss="33.01" rerouteNo="0" devices="tripinfo_f_0_12.9" vType="DEFAULT_VEHTYPE" speedFactor="1.09" vaporized=""/>
    <tripinfo id="f_0_25.9" depart="39.00" departLane="J5I5_0" departPos="5.10" departSpeed="0.00" departDelay="0.00" arrival="205.00" arrivalLane="G5F5_0" arrivalPos="492.80" arrivalSpeed="15.01" duration="166.00" routeLength="1994.90" waitingTime="0.00" waitingCount="0" stopTime="0.00" timeLoss="37.65" rerouteNo="0" devices="tripinfo_f_0_25.9" vType="DEFAULT_VEHTYPE" speedFactor="1.12" vaporized=""/>
    <tripinfo id="f_0_1.4" depart="19.00" departLane="F9E9_0" departPos="5.10" departSpeed="0.00" departDelay="4.00" arrival="206.00" arrivalLane="C9B9_0" arrivalPos="491.30" arrivalSpeed="12.20" duration="187.00" routeLength="1993.50" waitingTime="1.00" waitingCount="1" stopTime="0.00" timeLoss="26.91" rerouteNo="0" devices="tripinfo_f_0_1.4" vType="DEFAULT_VEHTYPE" speedFactor="0.90" vaporized=""/>
    <tripinfo id="f_0_16.3" depart="11.00" departLane="A5B5_0" departPos="5.10" departSpeed="0.00" departDelay="3.00" arrival="207.00" arrivalLane="D5E5_0" arrivalPos="492.80" arrivalSpeed="10.46" duration="196.00" routeLength="1994.90" waitingTime="4.00" waitingCount="1" stopTime="0.00" timeLoss="21.72" rerouteNo="0" devices="tripinfo_f_0_16.3" vType="DEFAULT_VEHTYPE" speedFactor="0.83" vaporized=""/>
    <tripinfo id="f_0_1.5" depart="22.00" departLane="F9E9_0" departPos="5.10" departSpeed="0.00" departDelay="5.00" arrival="207.00" arrivalLane="C9B9_0" arrivalPos="491.30" arrivalSpeed="14.14" duration="185.00" routeLength="1993.50" waitingTime="2.00" waitingCount="1" stopTime="0.00" timeLoss="53.42" rerouteNo="0" devices="tripinfo_f_0_1.5" vType="DEFAULT_VEHTYPE" speedFactor="1.09" vaporized=""/>
    <tripinfo id="f_0_13.5" depart="21.00" departLane="G6G7_0" departPos="5.10" departSpeed="0.00" departDelay="0.00" arrival="207.00" arrivalLane="G9G10_0" arrivalPos="491.30" arrivalSpeed="11.98" duration="186.00" routeLength="1993.50" waitingTime="4.00" waitingCount="1" stopTime="0.00" timeLoss="21.55" rerouteNo="0" devices="tripinfo_f_0_13.5" vType="DEFAULT_VEHTYPE" speedFactor="0.88" vaporized=""/>
    <tripinfo id="f_0_16.4" depart="14.00" departLane="A5B5_0" departPos="5.10" departSpeed="0.00" departDelay="5.00" arrival="209.00" arrivalLane="D5E5_0" arrivalPos="492.80" arrivalSpeed="13.64" duration="195.00" routeLength="1994.90" waitingTime="3.00" waitingCount="1" stopTime="0.00" timeLoss="67.45" rerouteNo="0" devices="tripinfo_f_0_16.4" vType="DEFAULT_VEHTYPE" speedFactor="1.13" vaporized=""/>
    <tripinfo id="f_0_1.6" depart="25.00" departLane="F9E9_0" departPos="5.10" departSpeed="0.00" departDelay="6.00" arrival="209.00" arrivalLane="C9B9_0" arrivalPos="491.30" arrivalSpeed="14.23" duration="184.00" routeLength="1993.50" waitingTime="0.00" waitingCount="0" stopTime="0.00" timeLoss="51.71" rerouteNo="0" devices="tripinfo_f_0_1.6" vType="DEFAULT_VEHTYPE" speedFactor="1.09" vaporized=""/>
    <tripinfo id="f_0_16.5" depart="17.00" departLane="A5B5_0" departPos="5.10" departSpeed="0.00" departDelay="6.00" arrival="210.00" arrivalLane="D5E5_0" arrivalPos="492.80" arrivalSpeed="13.43" duration="193.00" routeLength="1994.90" waitingTime="2.00" waitingCount="1" stopTime="0.00" timeLoss="50.02" rerouteNo="0" devices="tripinfo_f_0_16.5" vType="DEFAULT_VEHTYPE" speedFactor="1.01" vaporized=""/>
    <tripinfo id="f_0_0.7" depart="27.00" departLane="A9B9_0" departPos="5.10" departSpeed="0.00" departDelay="0.00" arrival="210.00" arrivalLane="D9E9_0" arrivalPos="492.80" arrivalSpeed="11.98" duration="183.00" routeLength="1994.90" waitingTime="6.00" waitingCount="1" stopTime="0.00" timeLoss="23.79" rerouteNo="0" devices="tripinfo_f_0_0.7" vType="DEFAULT_VEHTYPE" speedFactor="0.91" vaporized=""/>
    <tripinfo id="f_0_13.6" depart="24.00" departLane="G6G7_0" departPos="5.10" departSpeed="0.00" departDelay="2.00" arrival="211.00" arrivalLane="G9G10_0" arrivalPos="491.30" arrivalSpeed="11.36" duration="187.00" routeLength="1993.50" waitingTime="0.00" waitingCount="0" stopTime="0.00" timeLoss="18.80" rerouteNo="0" devices="tripinfo_f_0_13.6" vType="DEFAULT_VEHTYPE" speedFactor="0.85" vaporized=""/>
    <tripinfo id="f_0_1.7" depart="28.00" departLane="F9E9_0" departPos="5.10" departSpeed="0.00" departDelay="5.00" arrival="211.00" arrivalLane="C9B9_0" arrivalPos="491.30" arrivalSpeed="13.86" duration="183.00" routeLength="1993.50" waitingTime="0.00" waitingCount="0" stopTime="0.00" timeLoss="39.28" rerouteNo="0" devices="tripinfo_f_0_1.7" vType="DEFAULT_VEHTYPE" speedFactor="1.00" vaporized=""/>
    <tripinfo id="f_0_0.8" depart="30.00" departLane="A9B9_0" departPos="5.10" departSpeed="0.00" departDelay="1.00" arrival="211.00" arrivalLane="D9E9_0" arrivalPos="492.80" arrivalSpeed="13.26" duration="181.00" routeLength="1994.90" waitingTime="5.00" waitingCount="1" stopTime="0.00" timeLoss="44.84" rerouteNo="0" devices="tripinfo_f_0_0.8" vType="DEFAULT_VEHTYPE" speedFactor="1.06" vaporized=""/>
    <tripinfo id="f_0_16.6" depart="20.00" departLane="A5B5_0" departPos="5.10" departSpeed="0.00" departDelay="4.00" arrival="212.00" arrivalLane="D5E5_0" arrivalPos="492.80" arrivalSpeed="12.94" duration="192.00" routeLength="1994.90" waitingTime="2.00" waitingCount="1" stopTime="0.00" timeLoss="41.67" rerouteNo="0" devices="tripinfo_f_0_16.6" vType="DEFAULT_VEHTYPE" speedFactor="0.96" vaporized=""/>
    <tripinfo id="f_0_13.7" depart="27.00" departLane="G6G7_0" departPos="5.10" departSpeed="0.00" departDelay="4.00" arrival="213.00" arrivalLane="G9G10_0" arrivalPos="491.30" arrivalSpeed="11.24" duration="186.00" routeLength="1993.50" waitingTime="0.00" waitingCount="0" stopTime="0.00" timeLoss="25.85" rerouteNo="0" devices="tripinfo_f_0_13.7" vType="DEFAULT_VEHTYPE" speedFactor="0.90" vaporized=""/>
    <tripinfo id="f_0_1.8" depart="31.00" departLane="F9E9_0" departPos="5.10" departSpeed="0.00" departDelay="7.00" arrival="213.00" arrivalLane="C9B9_0" arrivalPos="491.30" arrivalSpeed="13.69" duration="182.00" routeLength="1993.50" waitingTime="0.00" waitingCount="0" stopTime="0.00" timeLoss="40.85" rerouteNo="0" devices="tripinfo_f_0_1.8" vType="DEFAULT_VEHTYPE" speedFactor="1.02" vaporized=""/>