<?xml version="1.0" encoding="UTF-8"?>

<!-- generated on 2024-08-16 22:33:32 by Eclipse SUMO sumo Version 1.12.0
<configuration xmlns:xsi="http://www.w3.org/2001/XMLSchema-instance" xsi:noNamespaceSchemaLocation="http://sumo.dlr.de/xsd/sumoConfiguration.xsd">

    <input>
        <net-file value="quad_actuated.net.xml"/>
        <route-files value="quad_3.rou.xml"/>
    </input>

    <output>
        <summary-output value="control_summaries//summary_quad_actuated_3.xml"/>
        <tripinfo-output value="control_summaries//tripinfos_quad_actuated_3.xml"/>
    </output>

    <processing>
        <time-to-teleport value="-1"/>
    </processing>

    <traci_server>
        <remote-port value="45071"/>
    </traci_server>

</configuration>
-->

<tripinfos xmlns:xsi="http://www.w3.org/2001/XMLSchema-instance" xsi:noNamespaceSchemaLocation="http://sumo.dlr.de/xsd/tripinfo_file.xsd">
    <tripinfo id="f_1_10.0" depart="0.00" departLane="E8F8_0" departPos="5.10" departSpeed="0.00" departDelay="0.00" arrival="143.00" arrivalLane="H8I8_0" arrivalPos="491.30" arrivalSpeed="14.52" duration="143.00" routeLength="1993.50" waitingTime="0.00" waitingCount="0" stopTime="0.00" timeLoss="9.66" rerouteNo="0" devices="tripinfo_f_1_10.0" vType="DEFAULT_VEHTYPE" speedFactor="1.08" vaporized=""/>
    <tripinfo id="f_1_9.0" depart="3.00" departLane="J9I9_0" departPos="5.10" departSpeed="0.00" departDelay="0.00" arrival="147.00" arrivalLane="G9F9_0" arrivalPos="492.80" arrivalSpeed="15.71" duration="144.00" routeLength="1994.90" waitingTime="1.00" waitingCount="1" stopTime="0.00" timeLoss="16.34" rerouteNo="0" devices="tripinfo_f_1_9.0" vType="DEFAULT_VEHTYPE" speedFactor="1.13" vaporized=""/>
    <tripinfo id="f_1_12.0" depart="1.00" departLane="G11G10_0" departPos="5.10" departSpeed="0.00" departDelay="0.00" arrival="148.00" arrivalLane="G8G7_0" arrivalPos="492.80" arrivalSpeed="14.13" duration="147.00" routeLength="1994.90" waitingTime="0.00" waitingCount="0" stopTime="0.00" timeLoss="9.12" rerouteNo="0" devices="tripinfo_f_1_12.0" vType="DEFAULT_VEHTYPE" speedFactor="1.05" vaporized=""/>
    <tripinfo id="f_1_4.0" depart="2.00" departLane="C11C10_0" departPos="5.10" departSpeed="0.00" departDelay="0.00" arrival="148.00" arrivalLane="C8C7_0" arrivalPos="492.80" arrivalSpeed="15.33" duration="146.00" routeLength="1994.90" waitingTime="2.00" waitingCount="1" stopTime="0.00" timeLoss="21.73" rerouteNo="0" devices="tripinfo_f_1_4.0" vType="DEFAULT_VEHTYPE" speedFactor="1.16" vaporized=""/>
    <tripinfo id="f_1_19.0" depart="3.00" departLane="F4E4_0" departPos="5.10" departSpeed="0.00" departDelay="0.00" arrival="150.00" arrivalLane="C4B4_0" arrivalPos="491.30" arrivalSpeed="16.26" duration="147.00" routeLength="1993.50" waitingTime="9.00" waitingCount="1" stopTime="0.00" timeLoss="24.57" rerouteNo="0" devices="tripinfo_f_1_19.0" vType="DEFAULT_VEHTYPE" speedFactor="1.18" vaporized=""/>
    <tripinfo id="f_1_14.0" depart="1.00" departLane="H11H10_0" departPos="5.10" departSpeed="0.00" departDelay="0.00" arrival="151.00" arrivalLane="H8H7_0" arrivalPos="492.80" arrivalSpeed="15.35" duration="150.00" routeLength="1994.90" waitingTime="7.00" waitingCount="1" stopTime="0.00" timeLoss="21.80" rerouteNo="0" devices="tripinfo_f_1_14.0" vType="DEFAULT_VEHTYPE" speedFactor="1.12" vaporized=""/>
    <tripinfo id="f_1_22.0" depart="0.00" departLane="D7D6_0" departPos="5.10" departSpeed="0.00" departDelay="0.00" arrival="155.00" arrivalLane="D4D3_0" arrivalPos="491.30" arrivalSpeed="13.56" duration="155.00" routeLength="1993.50" waitingTime="3.00" waitingCount="1" stopTime="0.00" timeLoss="17.72" rerouteNo="0" devices="tripinfo_f_1_22.0" vType="DEFAULT_VEHTYPE" speedFactor="1.05" vaporized=""/>
    <tripinfo id="f_1_23.0" depart="1.00" departLane="D2D3_0" departPos="5.10" departSpeed="0.00" departDelay="0.00" arrival="156.00" arrivalLane="D5D6_0" arrivalPos="492.80" arrivalSpeed="12.73" duration="155.00" routeLength="1994.90" waitingTime="0.00" waitingCount="0" stopTime="0.00" timeLoss="10.07" rerouteNo="0" devices="tripinfo_f_1_23.0" vType="DEFAULT_VEHTYPE" speedFactor="0.99" vaporized=""/>
    <tripinfo id="f_1_8.0" depart="2.00" departLane="E9F9_0" departPos="5.10" departSpeed="0.00" departDelay="0.00" arrival="157.00" arrivalLane="H9I9_0" arrivalPos="491.30" arrivalSpeed="13.30" duration="155.00" routeLength="1993.50" waitingTime="0.00" waitingCount="0" stopTime="0.00" timeLoss="12.87" rerouteNo="0" devices="tripinfo_f_1_8.0" vType="DEFAULT_VEHTYPE" speedFactor="1.01" vaporized=""/>
    <tripinfo id="f_1_23.1" depart="5.00" departLane="D2D3_0" departPos="5.10" departSpeed="0.00" departDelay="0.00" arrival="158.00" arrivalLane="D5D6_0" arrivalPos="492.80" arrivalSpeed="13.33" duration="153.00" routeLength="1994.90" waitingTime="0.00" waitingCount="0" stopTime="0.00" timeLoss="14.97" rerouteNo="0" devices="tripinfo_f_1_23.1" vType="DEFAULT_VEHTYPE" speedFactor="1.04" vaporized=""/>
    <tripinfo id="f_1_19.1" depart="6.00" departLane="F4E4_0" departPos="5.10" departSpeed="0.00" departDelay="1.00" arrival="159.00" arrivalLane="C4B4_0" arrivalPos="491.30" arrivalSpeed="14.49" duration="153.00" routeLength="1993.50" waitingTime="6.00" waitingCount="1" stopTime="0.00" timeLoss="21.46" rerouteNo="0" devices="tripinfo_f_1_19.1" vType="DEFAULT_VEHTYPE" speedFactor="1.09" vaporized=""/>
    <tripinfo id="f_1_7.0" depart="0.00" departLane="D6D7_0" departPos="5.10" departSpeed="0.00" departDelay="0.00" arrival="161.00" arrivalLane="D9D10_0" arrivalPos="491.30" arrivalSpeed="13.93" duration="161.00" routeLength="1993.50" waitingTime="3.00" waitingCount="1" stopTime="0.00" timeLoss="18.04" rerouteNo="0" devices="tripinfo_f_1_7.0" vType="DEFAULT_VEHTYPE" speedFactor="1.01" vaporized=""/>
    <tripinfo id="f_1_19.2" depart="9.00" departLane="F4E4_0" departPos="5.10" departSpeed="0.00" departDelay="3.00" arrival="161.00" arrivalLane="C4B4_0" arrivalPos="491.30" arrivalSpeed="14.00" duration="152.00" routeLength="1993.50" waitingTime="5.00" waitingCount="1" stopTime="0.00" timeLoss="20.65" rerouteNo="0" devices="tripinfo_f_1_19.2" vType="DEFAULT_VEHTYPE" speedFactor="1.10" vaporized=""/>
    <tripinfo id="f_1_7.1" depart="3.00" departLane="D6D7_0" departPos="5.10" departSpeed="0.00" departDelay="2.00" arrival="162.00" arrivalLane="D9D10_0" arrivalPos="491.30" arrivalSpeed="13.77" duration="159.00" routeLength="1993.50" waitingTime="2.00" waitingCount="1" stopTime="0.00" timeLoss="19.05" rerouteNo="0" devices="tripinfo_f_1_7.1" vType="DEFAULT_VEHTYPE" speedFactor="1.03" vaporized=""/>
    <tripinfo id="f_1_27.0" depart="5.00" departLane="J4I4_0" departPos="5.10" departSpeed="0.00" departDelay="0.00" arrival="162.00" arrivalLane="G4F4_0" arrivalPos="492.80" arrivalSpeed="13.16" duration="157.00" routeLength="1994.90" waitingTime="0.00" waitingCount="0" stopTime="0.00" timeLoss="12.98" rerouteNo="0" devices="tripinfo_f_1_27.0" vType="DEFAULT_VEHTYPE" speedFactor="1.00" vaporized=""/>
    <tripinfo id="f_1_7.2" depart="6.00" departLane="D6D7_0" departPos="5.10" departSpeed="0.00" departDelay="4.00" arrival="164.00" arrivalLane="D9D10_0" arrivalPos="491.30" arrivalSpeed="13.82" duration="158.00" routeLength="1993.50" waitingTime="0.00" waitingCount="0" stopTime="0.00" timeLoss="16.65" rerouteNo="0" devices="tripinfo_f_1_7.2" vType="DEFAULT_VEHTYPE" speedFactor="1.02" vaporized=""/>
    <tripinfo id="f_1_27.1" depart="8.00" departLane="J4I4_0" departPos="5.10" departSpeed="0.00" departDelay="2.00" arrival="164.00" arrivalLane="G4F4_0" arrivalPos="492.80" arrivalSpeed="13.43" duration="156.00" routeLength="1994.90" waitingTime="0.00" waitingCount="0" stopTime="0.00" timeLoss="12.66" rerouteNo="0" devices="tripinfo_f_1_27.1" vType="DEFAULT_VEHTYPE" speedFactor="1.00" vaporized=""/>
    <tripinfo id="f_1_18.0" depart="8.00" departLane="A4B4_0" departPos="5.10" departSpeed="0.00" departDelay="0.00" arrival="165.00" arrivalLane="D4E4_0" arrivalPos="492.80" arrivalSpeed="13.33" duration="157.00" routeLength="1994.90" waitingTime="0.00" waitingCount="0" stopTime="0.00" timeLoss="16.39" rerouteNo="0" devices="tripinfo_f_1_18.0" vType="DEFAULT_VEHTYPE" speedFactor="1.02" vaporized=""/>
    <tripinfo id="f_1_7.3" depart="9.00" departLane="D6D7_0" departPos="5.10" departSpeed="0.00" departDelay="2.00" arrival="166.00" arrivalLane="D9D10_0" arrivalPos="491.30" arrivalSpeed="13.16" duration="157.00" routeLength="1993.50" waitingTime="0.00" waitingCount="0" stopTime="0.00" timeLoss="16.18" rerouteNo="0" devices="tripinfo_f_1_7.3" vType="DEFAULT_VEHTYPE" speedFactor="1.02" vaporized=""/>
    <tripinfo id="f_1_27.2" depart="11.00" departLane="J4I4_0" departPos="5.10" departSpeed="0.00" departDelay="2.00" arrival="166.00" arrivalLane="G4F4_0" arrivalPos="492.80" arrivalSpeed="13.47" duration="155.00" routeLength="1994.90" waitingTime="0.00" waitingCount="0" stopTime="0.00" timeLoss="15.51" rerouteNo="0" devices="tripinfo_f_1_27.2" vType="DEFAULT_VEHTYPE" speedFactor="1.03" vaporized=""/>
    <tripinfo id="f_1_10.1" depart="12.00" departLane="E8F8_0" departPos="5.10" departSpeed="0.00" departDelay="0.00" arrival="166.00" arrivalLane="H8I8_0" arrivalPos="491.30" arrivalSpeed="15.15" duration="154.00" routeLength="1993.50" waitingTime="4.00" waitingCount="2" stopTime="0.00" timeLoss="25.28" rerouteNo="0" devices="tripinfo_f_1_10.1" vType="DEFAULT_VEHTYPE" speedFactor="1.12" vaporized=""/>
    <tripinfo id="f_1_29.0" depart="6.00" departLane="G2G3_0" departPos="5.10" departSpeed="0.00" departDelay="0.00" arrival="168.00" arrivalLane="G5G6_0" arrivalPos="492.80" arrivalSpeed="13.83" duration="162.00" routeLength="1994.90" waitingTime="1.00" waitingCount="1" stopTime="0.00" timeLoss="17.02" rerouteNo="0" devices="tripinfo_f_1_29.0" vType="DEFAULT_VEHTYPE" speedFactor="1.00" vaporized=""/>
    <tripinfo id="f_1_27.3" depart="15.00" departLane="J4I4_0" departPos="5.10" departSpeed="0.00" departDelay="0.00" arrival="168.00" arrivalLane="G4F4_0" arrivalPos="492.80" arrivalSpeed="13.31" duration="153.00" routeLength="1994.90" waitingTime="0.00" waitingCount="0" stopTime="0.00" timeLoss="13.16" rerouteNo="0" devices="tripinfo_f_1_27.3" vType="DEFAULT_VEHTYPE" speedFactor="1.03" vaporized=""/>
    <tripinfo id="f_1_10.2" depart="15.00" departLane="E8F8_0" departPos="5.10" departSpeed="0.00" departDelay="1.00" arrival="169.00" arrivalLane="H8I8_0" arrivalPos="491.30" arrivalSpeed="14.34" duration="154.00" routeLength="1993.50" waitingTime="0.00" waitingCount="0" stopTime="0.00" timeLoss="22.70" rerouteNo="0" devices="tripinfo_f_1_10.2" vType="DEFAULT_VEHTYPE" speedFactor="1.10" vaporized=""/>
    <tripinfo id="f_1_12.1" depart="4.00" departLane="G11G10_0" departPos="5.10" departSpeed="0.00" departDelay="2.00" arrival="170.00" arrivalLane="G8G7_0" arrivalPos="492.80" arrivalSpeed="12.90" duration="166.00" routeLength="1994.90" waitingTime="2.00" waitingCount="1" stopTime="0.00" timeLoss="18.18" rerouteNo="0" devices="tripinfo_f_1_12.1" vType="DEFAULT_VEHTYPE" speedFactor="0.98" vaporized=""/>
    <tripinfo id="f_1_4.1" depart="5.00" departLane="C11C10_0" departPos="5.10" departSpeed="0.00" departDelay="1.00" arrival="170.00" arrivalLane="C8C7_0" arrivalPos="492.80" arrivalSpeed="13.11" duration="165.00" routeLength="1994.90" waitingTime="0.00" waitingCount="0" stopTime="0.00" timeLoss="19.77" rerouteNo="0" devices="tripinfo_f_1_4.1" vType="DEFAULT_VEHTYPE" speedFactor="0.99" vaporized=""/>
    <tripinfo id="f_1_27.4" depart="18.00" departLane="J4I4_0" departPos="5.10" departSpeed="0.00" departDelay="2.00" arrival="170.00" arrivalLane="G4F4_0" arrivalPos="492.80" arrivalSpeed="14.13" duration="152.00" routeLength="1994.90" waitingTime="0.00" waitingCount="0" stopTime="0.00" timeLoss="16.64" rerouteNo="0" devices="tripinfo_f_1_27.4" vType="DEFAULT_VEHTYPE" speedFactor="1.07" vaporized=""/>
    <tripinfo id="f_1_2.0" depart="0.00" departLane="A8B8_0" departPos="5.10" departSpeed="0.00" departDelay="0.00" arrival="173.00" arrivalLane="D8E8_0" arrivalPos="492.80" arrivalSpeed="14.23" duration="173.00" routeLength="1994.90" waitingTime="20.00" waitingCount="1" stopTime="0.00" timeLoss="36.99" rerouteNo="0" devices="tripinfo_f_1_2.0" vType="DEFAULT_VEHTYPE" speedFactor="1.06" vaporized=""/>
    <tripinfo id="f_1_16.0" depart="0.00" departLane="A5B5_0" departPos="5.10" departSpeed="0.00" departDelay="0.00" arrival="173.00" arrivalLane="D5E5_0" arrivalPos="492.80" arrivalSpeed="13.32" duration="173.00" routeLength="1994.90" waitingTime="10.00" waitingCount="1" stopTime="0.00" timeLoss="32.84" rerouteNo="0" devices="tripinfo_f_1_16.0" vType="DEFAULT_VEHTYPE" speedFactor="1.03" vaporized=""/>
    <tripinfo id="f_1_9.1" depart="6.00" departLane="J9I9_0" departPos="5.10" departSpeed="0.00" departDelay="2.00" arrival="173.00" arrivalLane="G9F9_0" arrivalPos="492.80" arrivalSpeed="13.62" duration="167.00" routeLength="1994.90" waitingTime="4.00" waitingCount="2" stopTime="0.00" timeLoss="25.36" rerouteNo="0" devices="tripinfo_f_1_9.1" vType="DEFAULT_VEHTYPE" speedFactor="1.02" vaporized=""/>
    <tripinfo id="f_1_12.2" depart="7.00" departLane="G11G10_0" departPos="5.10" departSpeed="0.00" departDelay="2.00" arrival="173.00" arrivalLane="G8G7_0" arrivalPos="492.80" arrivalSpeed="12.75" duration="166.00" routeLength="1994.90" waitingTime="0.00" waitingCount="0" stopTime="0.00" timeLoss="15.48" rerouteNo="0" devices="tripinfo_f_1_12.2" vType="DEFAULT_VEHTYPE" speedFactor="0.96" vaporized=""/>
    <tripinfo id="f_1_29.1" depart="25.00" departLane="G2G3_0" departPos="5.10" departSpeed="0.00" departDelay="0.00" arrival="173.00" arrivalLane="G5G6_0" arrivalPos="492.80" arrivalSpeed="13.47" duration="148.00" routeLength="1994.90" waitingTime="0.00" waitingCount="0" stopTime="0.00" timeLoss="8.59" rerouteNo="0" devices="tripinfo_f_1_29.1" vType="DEFAULT_VEHTYPE" speedFactor="1.04" vaporized=""/>
    <tripinfo id="f_1_5.0" depart="0.00" departLane="C6C7_0" departPos="5.10" departSpeed="0.00" departDelay="0.00" arrival="174.00" arrivalLane="C9C10_0" arrivalPos="491.30" arrivalSpeed="12.67" duration="174.00" routeLength="1993.50" waitingTime="5.00" waitingCount="1" stopTime="0.00" timeLoss="20.33" rerouteNo="0" devices="tripinfo_f_1_5.0" vType="DEFAULT_VEHTYPE" speedFactor="0.94" vaporized=""/>
    <tripinfo id="f_1_16.1" depart="7.00" departLane="A5B5_0" departPos="5.10" departSpeed="0.00" departDelay="0.00" arrival="174.00" arrivalLane="D5E5_0" arrivalPos="492.80" arrivalSpeed="13.99" duration="167.00" routeLength="1994.90" waitingTime="10.00" waitingCount="1" stopTime="0.00" timeLoss="34.17" rerouteNo="0" devices="tripinfo_f_1_16.1" vType="DEFAULT_VEHTYPE" speedFactor="1.08" vaporized=""/>
    <tripinfo id="f_1_29.2" depart="31.00" departLane="G2G3_0" departPos="5.10" departSpeed="0.00" departDelay="0.00" arrival="174.00" arrivalLane="G5G6_0" arrivalPos="492.80" arrivalSpeed="14.76" duration="143.00" routeLength="1994.90" waitingTime="0.00" waitingCount="0" stopTime="0.00" timeLoss="13.71" rerouteNo="0" devices="tripinfo_f_1_29.2" vType="DEFAULT_VEHTYPE" speedFactor="1.11" vaporized=""/>
    <tripinfo id="f_1_12.3" depart="10.00" departLane="G11G10_0" departPos="5.10" departSpeed="0.00" departDelay="0.00" arrival="175.00" arrivalLane="G8G7_0" arrivalPos="492.80" arrivalSpeed="13.05" duration="165.00" routeLength="1994.90" waitingTime="0.00" waitingCount="0" stopTime="0.00" timeLoss="23.09" rerouteNo="0" devices="tripinfo_f_1_12.3" vType="DEFAULT_VEHTYPE" speedFactor="1.02" vaporized=""/>
    <tripinfo id="f_1_5.1" depart="19.00" departLane="C6C7_0" departPos="5.10" departSpeed="0.00" departDelay="0.00" arrival="175.00" arrivalLane="C9C10_0" arrivalPos="491.30" arrivalSpeed="13.38" duration="156.00" routeLength="1993.50" waitingTime="0.00" waitingCount="0" stopTime="0.00" timeLoss="17.94" rerouteNo="0" devices="tripinfo_f_1_5.1" vType="DEFAULT_VEHTYPE" speedFactor="1.04" vaporized=""/>
    <tripinfo id="f_1_12.4" depart="13.00" departLane="G11G10_0" departPos="5.10" departSpeed="0.00" departDelay="1.00" arrival="176.00" arrivalLane="G8G7_0" arrivalPos="492.80" arrivalSpeed="14.57" duration="163.00" routeLength="1994.90" waitingTime="0.00" waitingCount="0" stopTime="0.00" timeLoss="32.04" rerouteNo="0" devices="tripinfo_f_1_12.4" vType="DEFAULT_VEHTYPE" speedFactor="1.10" vaporized=""/>
    <tripinfo id="f_1_17.0" depart="6.00" departLane="F5E5_0" departPos="5.10" departSpeed="0.00" departDelay="0.00" arrival="177.00" arrivalLane="C5B5_0" arrivalPos="491.30" arrivalSpeed="13.44" duration="171.00" routeLength="1993.50" waitingTime="9.00" waitingCount="2" stopTime="0.00" timeLoss="29.55" rerouteNo="0" devices="tripinfo_f_1_17.0" vType="DEFAULT_VEHTYPE" speedFactor="1.02" vaporized=""/>
    <tripinfo id="f_1_5.2" depart="22.00" departLane="C6C7_0" departPos="5.10" departSpeed="0.00" departDelay="2.00" arrival="177.00" arrivalLane="C9C10_0" arrivalPos="491.30" arrivalSpeed="15.22" duration="155.00" routeLength="1993.50" waitingTime="0.00" waitingCount="0" stopTime="0.00" timeLoss="26.82" rerouteNo="0" devices="tripinfo_f_1_5.2" vType="DEFAULT_VEHTYPE" speedFactor="1.12" vaporized=""/>
    <tripinfo id="f_1_12.5" depart="20.00" departLane="G11G10_0" departPos="5.10" departSpeed="0.00" departDelay="0.00" arrival="178.00" arrivalLane="G8G7_0" arrivalPos="492.80" arrivalSpeed="15.54" duration="158.00" routeLength="1994.90" waitingTime="0.00" waitingCount="0" stopTime="0.00" timeLoss="35.67" rerouteNo="0" devices="tripinfo_f_1_12.5" vType="DEFAULT_VEHTYPE" speedFactor="1.18" vaporized=""/>
    <tripinfo id="f_1_2.1" depart="25.00" departLane="A8B8_0" departPos="5.10" departSpeed="0.00" departDelay="0.00" arrival="178.00" arrivalLane="D8E8_0" arrivalPos="492.80" arrivalSpeed="14.19" duration="153.00" routeLength="1994.90" waitingTime="2.00" waitingCount="1" stopTime="0.00" timeLoss="17.86" rerouteNo="0" devices="tripinfo_f_1_2.1" vType="DEFAULT_VEHTYPE" speedFactor="1.07" vaporized=""/>
    <tripinfo id="f_1_28.0" depart="1.00" departLane="G7G6_0" departPos="5.10" departSpeed="0.00" departDelay="0.00" arrival="179.00" arrivalLane="G4G3_0" arrivalPos="491.30" arrivalSpeed="11.88" duration="178.00" routeLength="1993.50" waitingTime="3.00" waitingCount="1" stopTime="0.00" timeLoss="23.02" rerouteNo="0" devices="tripinfo_f_1_28.0" vType="DEFAULT_VEHTYPE" speedFactor="0.93" vaporized=""/>
    <tripinfo id="f_1_12.6" depart="23.00" departLane="G11G10_0" departPos="5.10" departSpeed="0.00" departDelay="2.00" arrival="180.00" arrivalLane="G8G7_0" arrivalPos="492.80" arrivalSpeed="15.20" duration="157.00" routeLength="1994.90" waitingTime="0.00" waitingCount="0" stopTime="0.00" timeLoss="28.65" rerouteNo="0" devices="tripinfo_f_1_12.6" vType="DEFAULT_VEHTYPE" speedFactor="1.13" vaporized=""/>
    <tripinfo id="f_1_2.2" depart="29.00" departLane="A8B8_0" departPos="5.10" departSpeed="0.00" departDelay="0.00" arrival="180.00" arrivalLane="D8E8_0" arrivalPos="492.80" arrivalSpeed="14.12" duration="151.00" routeLength="1994.90" waitingTime="0.00" waitingCount="0" stopTime="0.00" timeLoss="18.55" rerouteNo="0" devices="tripinfo_f_1_2.2" vType="DEFAULT_VEHTYPE" speedFactor="1.09" vaporized=""/>
    <tripinfo id="f_1_12.7" depart="26.00" departLane="G11G10_0" departPos="5.10" departSpeed="0.00" departDelay="3.00" arrival="181.00" arrivalLane="G8G7_0" arrivalPos="492.80" arrivalSpeed="14.77" duration="155.00" routeLength="1994.90" waitingTime="0.00" waitingCount="0" stopTime="0.00" timeLoss="24.27" rerouteNo="0" devices="tripinfo_f_1_12.7" vType="DEFAULT_VEHTYPE" speedFactor="1.10" vaporized=""/>
    <tripinfo id="f_1_24.0" depart="8.00" departLane="E5F5_0" departPos="5.10" departSpeed="0.00" departDelay="0.00" arrival="182.00" arrivalLane="H5I5_0" arrivalPos="491.30" arrivalSpeed="13.35" duration="174.00" routeLength="1993.50" waitingTime="16.00" waitingCount="1" stopTime="0.00" timeLoss="33.12" rerouteNo="0" devices="tripinfo_f_1_24.0" vType="DEFAULT_VEHTYPE" speedFactor="1.02" vaporized=""/>
    <tripinfo id="f_1_28.1" depart="4.00" departLane="G7G6_0" departPos="5.10" departSpeed="0.00" departDelay="2.00" arrival="183.00" arrivalLane="G4G3_0" arrivalPos="491.30" arrivalSpeed="11.51" duration="179.00" routeLength="1993.50" waitingTime="0.00" waitingCount="0" stopTime="0.00" timeLoss="14.38" rerouteNo="0" devices="tripinfo_f_1_28.1" vType="DEFAULT_VEHTYPE" speedFactor="0.87" vaporized=""/>
    <tripinfo id="f_1_12.8" depart="29.00" departLane="G11G10_0" departPos="5.10" departSpeed="0.00" departDelay="4.00" arrival="183.00" arrivalLane="G8G7_0" arrivalPos="492.80" arrivalSpeed="13.43" duration="154.00" routeLength="1994.90" waitingTime="0.00" waitingCount="0" stopTime="0.00" timeLoss="14.40" rerouteNo="0" devices="tripinfo_f_1_12.8" vType="DEFAULT_VEHTYPE" speedFactor="1.03" vaporized=""/>
    <tripinfo id="f_1_28.2" depart="7.00" departLane="G7G6_0" departPos="5.10" departSpeed="0.00" departDelay="3.00" arrival="185.00" arrivalLane="G4G3_0" arrivalPos="491.30" arrivalSpeed="11.57" duration="178.00" routeLength="1993.50" waitingTime="0.00" waitingCount="0" stopTime="0.00" timeLoss="18.44" rerouteNo="0" devices="tripinfo_f_1_28.2" vType="DEFAULT_VEHTYPE" speedFactor="0.90" vaporized=""/>
    <tripinfo id="f_1_11.0" depart="6.00" departLane="J8I8_0" departPos="5.10" departSpeed="0.00" departDelay="0.00" arrival="185.00" arrivalLane="G8F8_0" arrivalPos="492.80" arrivalSpeed="16.21" duration="179.00" routeLength="1994.90" waitingTime="32.00" waitingCount="2" stopTime="0.00" timeLoss="55.15" rerouteNo="0" devices="tripinfo_f_1_11.0" vType="DEFAULT_VEHTYPE" speedFactor="1.17" vaporized=""/>
    <tripinfo id="f_1_14.1" depart="10.00" departLane="H11H10_0" departPos="5.10" departSpeed="0.00" departDelay="0.00" arrival="185.00" arrivalLane="H8H7_0" arrivalPos="492.80" arrivalSpeed="12.62" duration="175.00" routeLength="1994.90" waitingTime="6.00" waitingCount="2" stopTime="0.00" timeLoss="25.68" rerouteNo="0" devices="tripinfo_f_1_14.1" vType="DEFAULT_VEHTYPE" speedFactor="0.97" vaporized=""/>
    <tripinfo id="f_1_20.0" depart="0.00" departLane="C7C6_0" departPos="5.10" departSpeed="0.00" departDelay="0.00" arrival="186.00" arrivalLane="C4C3_0" arrivalPos="491.30" arrivalSpeed="10.58" duration="186.00" routeLength="1993.50" waitingTime="0.00" waitingCount="0" stopTime="0.00" timeLoss="12.97" rerouteNo="0" devices="tripinfo_f_1_20.0" vType="DEFAULT_VEHTYPE" speedFactor="0.83" vaporized=""/>
    <tripinfo id="f_1_22.1" depart="10.00" departLane="D7D6_0" departPos="5.10" departSpeed="0.00" departDelay="0.00" arrival="186.00" arrivalLane="D4D3_0" arrivalPos="491.30" arrivalSpeed="12.82" duration="176.00" routeLength="1993.50" waitingTime="7.00" waitingCount="2" stopTime="0.00" timeLoss="28.34" rerouteNo="0" devices="tripinfo_f_1_22.1" vType="DEFAULT_VEHTYPE" speedFactor="0.98" vaporized=""/>
    <tripinfo id="f_1_28.3" depart="10.00" departLane="G7G6_0" departPos="5.10" departSpeed="0.00" departDelay="2.00" arrival="187.00" arrivalLane="G4G3_0" arrivalPos="491.30" arrivalSpeed="12.46" duration="177.00" routeLength="1993.50" waitingTime="0.00" waitingCount="0" stopTime="0.00" timeLoss="28.97" rerouteNo="0" devices="tripinfo_f_1_28.3" vType="DEFAULT_VEHTYPE" speedFactor="0.97" vaporized=""/>
    <tripinfo id="f_1_8.1" depart="13.00" departLane="E9F9_0" departPos="5.10" departSpeed="0.00" departDelay="0.00" arrival="187.00" arrivalLane="H9I9_0" arrivalPos="491.30" arrivalSpeed="13.37" duration="174.00" routeLength="1993.50" waitingTime="17.00" waitingCount="1" stopTime="0.00" timeLoss="31.76" rerouteNo="0" devices="tripinfo_f_1_8.1" vType="DEFAULT_VEHTYPE" speedFactor="1.01" vaporized=""/>
    <tripinfo id="f_1_14.2" depart="13.00" departLane="H11H10_0" departPos="5.10" departSpeed="0.00" departDelay="0.00" arrival="187.00" arrivalLane="H8H7_0" arrivalPos="492.80" arrivalSpeed="12.25" duration="174.00" routeLength="1994.90" waitingTime="1.00" waitingCount="1" stopTime="0.00" timeLoss="23.43" rerouteNo="0" devices="tripinfo_f_1_14.2" vType="DEFAULT_VEHTYPE" speedFactor="0.96" vaporized=""/>
    <tripinfo id="f_1_20.1" depart="7.00" departLane="C7C6_0" departPos="5.10" departSpeed="0.00" departDelay="0.00" arrival="188.00" arrivalLane="C4C3_0" arrivalPos="491.30" arrivalSpeed="13.07" duration="181.00" routeLength="1993.50" waitingTime="0.00" waitingCount="0" stopTime="0.00" timeLoss="38.99" rerouteNo="0" devices="tripinfo_f_1_20.1" vType="DEFAULT_VEHTYPE" speedFactor="1.02" vaporized=""/>
    <tripinfo id="f_1_23.2" depart="8.00" departLane="D2D3_0" departPos="5.10" departSpeed="0.00" departDelay="1.00" arrival="188.00" arrivalLane="D5D6_0" arrivalPos="492.80" arrivalSpeed="12.77" duration="180.00" routeLength="1994.90" waitingTime="6.00" waitingCount="2" stopTime="0.00" timeLoss="25.88" rerouteNo="0" devices="tripinfo_f_1_23.2" vType="DEFAULT_VEHTYPE" speedFactor="0.94" vaporized=""/>
    <tripinfo id="f_1_22.2" depart="13.00" departLane="D7D6_0" departPos="5.10" departSpeed="0.00" departDelay="2.00" arrival="188.00" arrivalLane="D4D3_0" arrivalPos="491.30" arrivalSpeed="14.96" duration="175.00" routeLength="1993.50" waitingTime="4.00" waitingCount="2" stopTime="0.00" timeLoss="42.48" rerouteNo="0" devices="tripinfo_f_1_22.2" vType="DEFAULT_VEHTYPE" speedFactor="1.09" vaporized=""/>
    <tripinfo id="f_1_14.3" depart="16.00" departLane="H11H10_0" departPos="5.10" departSpeed="0.00" departDelay="2.00" arrival="188.00" arrivalLane="H8H7_0" arrivalPos="492.80" arrivalSpeed="13.86" duration="172.00" routeLength="1994.90" waitingTime="0.00" waitingCount="0" stopTime="0.00" timeLoss="29.36" rerouteNo="0" devices="tripinfo_f_1_14.3" vType="DEFAULT_VEHTYPE" speedFactor="1.01" vaporized=""/>
    <tripinfo id="f_1_23.3" depart="11.00" departLane="D2D3_0" departPos="5.10" departSpeed="0.00" departDelay="2.00" arrival="189.00" arrivalLane="D5D6_0" arrivalPos="492.80" arrivalSpeed="12.95" duration="178.00" routeLength="1994.90" waitingTime="4.00" waitingCount="2" stopTime="0.00" timeLoss="31.99" rerouteNo="0" devices="tripinfo_f_1_23.3" vType="DEFAULT_VEHTYPE" speedFactor="0.98" vaporized=""/>
    <tripinfo id="f_1_28.4" depart="13.00" departLane="G7G6_0" departPos="5.10" departSpeed="0.00" departDelay="4.00" arrival="189.00" arrivalLane="G4G3_0" arrivalPos="491.30" arrivalSpeed="13.63" duration="176.00" routeLength="1993.50" waitingTime="0.00" waitingCount="0" stopTime="0.00" timeLoss="29.08" rerouteNo="0" devices="tripinfo_f_1_28.4" vType="DEFAULT_VEHTYPE" speedFactor="0.98" vaporized=""/>
    <tripinfo id="f_1_8.2" depart="22.00" departLane="E9F9_0" departPos="5.10" departSpeed="0.00" departDelay="0.00" arrival="189.00" arrivalLane="H9I9_0" arrivalPos="491.30" arrivalSpeed="13.42" duration="167.00" routeLength="1993.50" waitingTime="11.00" waitingCount="1" stopTime="0.00" timeLoss="26.80" rerouteNo="0" devices="tripinfo_f_1_8.2" vType="DEFAULT_VEHTYPE" speedFactor="1.03" vaporized=""/>
    <tripinfo id="f_1_20.2" depart="10.00" departLane="C7C6_0" departPos="5.10" departSpeed="0.00" departDelay="1.00" arrival="190.00" arrivalLane="C4C3_0" arrivalPos="491.30" arrivalSpeed="12.30" duration="180.00" routeLength="1993.50" waitingTime="0.00" waitingCount="0" stopTime="0.00" timeLoss="28.93" rerouteNo="0" devices="tripinfo_f_1_20.2" vType="DEFAULT_VEHTYPE" speedFactor="0.96" vaporized=""/>
    <tripinfo id="f_1_11.1" depart="23.00" departLane="J8I8_0" departPos="5.10" departSpeed="0.00" departDelay="0.00" arrival="190.00" arrivalLane="G8F8_0" arrivalPos="492.80" arrivalSpeed="13.50" duration="167.00" routeLength="1994.90" waitingTime="8.00" waitingCount="2" stopTime="0.00" timeLoss="31.31" rerouteNo="0" devices="tripinfo_f_1_11.1" vType="DEFAULT_VEHTYPE" speedFactor="1.06" vaporized=""/>
    <tripinfo id="f_1_1.0" depart="1.00" departLane="F9E9_0" departPos="5.10" departSpeed="0.00" departDelay="0.00" arrival="191.00" arrivalLane="C9B9_0" arrivalPos="491.30" arrivalSpeed="11.16" duration="190.00" routeLength="1993.50" waitingTime="5.00" waitingCount="1" stopTime="0.00" timeLoss="21.95" rerouteNo="0" devices="tripinfo_f_1_1.0" vType="DEFAULT_VEHTYPE" speedFactor="0.86" vaporized=""/>
    <tripinfo id="f_1_25.0" depart="3.00" departLane="J5I5_0" departPos="5.10" departSpeed="0.00" departDelay="0.00" arrival="191.00" arrivalLane="G5F5_0" arrivalPos="492.80" arrivalSpeed="12.80" duration="188.00" routeLength="1994.90" waitingTime="24.00" waitingCount="2" stopTime="0.00" timeLoss="44.53" rerouteNo="0" devices="tripinfo_f_1_25.0" vType="DEFAULT_VEHTYPE" speedFactor="1.01" vaporized=""/>
    <tripinfo id="f_1_23.4" depart="14.00" departLane="D2D3_0" departPos="5.10" departSpeed="0.00" departDelay="3.00" arrival="191.00" arrivalLane="D5D6_0" arrivalPos="492.80" arrivalSpeed="14.45" duration="177.00" routeLength="1994.90" waitingTime="2.00" waitingCount="1" stopTime="0.00" timeLoss="40.65" rerouteNo="0" devices="tripinfo_f_1_23.4" vType="DEFAULT_VEHTYPE" speedFactor="1.06" vaporized=""/>
    <tripinfo id="f_1_14.4" depart="19.00" departLane="H11H10_0" departPos="5.10" departSpeed="0.00" departDelay="4.00" arrival="191.00" arrivalLane="H8H7_0" arrivalPos="492.80" arrivalSpeed="12.27" duration="172.00" routeLength="1994.90" waitingTime="0.00" waitingCount="0" stopTime="0.00" timeLoss="18.94" rerouteNo="0" devices="tripinfo_f_1_14.4" vType="DEFAULT_VEHTYPE" speedFactor="0.94" vaporized=""/>
    <tripinfo id="f_1_28.5" depart="16.00" departLane="G7G6_0" departPos="5.10" departSpeed="0.00" departDelay="1.00" arrival="191.00" arrivalLane="G4G3_0" arrivalPos="491.30" arrivalSpeed="13.58" duration="175.00" routeLength="1993.50" waitingTime="0.00" waitingCount="0" stopTime="0.00" timeLoss="33.84" rerouteNo="0" devices="tripinfo_f_1_28.5" vType="DEFAULT_VEHTYPE" speedFactor="1.02" vaporized=""/>