<?xml version="1.0" encoding="UTF-8"?>

<!-- generated on 2024-08-16 22:33:29 by Eclipse SUMO sumo Version 1.12.0
<configuration xmlns:xsi="http://www.w3.org/2001/XMLSchema-instance" xsi:noNamespaceSchemaLocation="http://sumo.dlr.de/xsd/sumoConfiguration.xsd">

    <input>
        <net-file value="quad_static_offset.net.xml"/>
        <route-files value="quad_3.rou.xml"/>
    </input>

    <output>
        <summary-output value="control_summaries//summary_quad_static_offset_3.xml"/>
        <tripinfo-output value="control_summaries//tripinfos_quad_static_offset_3.xml"/>
    </output>

    <processing>
        <time-to-teleport value="-1"/>
    </processing>

    <traci_server>
        <remote-port value="45555"/>
    </traci_server>

</configuration>
-->

<tripinfos xmlns:xsi="http://www.w3.org/2001/XMLSchema-instance" xsi:noNamespaceSchemaLocation="http://sumo.dlr.de/xsd/tripinfo_file.xsd">
    <tripinfo id="f_1_4.0" depart="2.00" departLane="C11C10_0" departPos="5.10" departSpeed="0.00" departDelay="0.00" arrival="136.00" arrivalLane="C8C7_0" arrivalPos="492.80" arrivalSpeed="14.83" duration="134.00" routeLength="1994.90" waitingTime="0.00" waitingCount="0" stopTime="0.00" timeLoss="9.40" rerouteNo="0" devices="tripinfo_f_1_4.0" vType="DEFAULT_VEHTYPE" speedFactor="1.16" vaporized=""/>
    <tripinfo id="f_1_9.0" depart="3.00" departLane="J9I9_0" departPos="5.10" departSpeed="0.00" departDelay="0.00" arrival="139.00" arrivalLane="G9F9_0" arrivalPos="492.80" arrivalSpeed="15.44" duration="136.00" routeLength="1994.90" waitingTime="0.00" waitingCount="0" stopTime="0.00" timeLoss="8.74" rerouteNo="0" devices="tripinfo_f_1_9.0" vType="DEFAULT_VEHTYPE" speedFactor="1.13" vaporized=""/>
    <tripinfo id="f_1_10.0" depart="0.00" departLane="E8F8_0" departPos="5.10" departSpeed="0.00" departDelay="0.00" arrival="142.00" arrivalLane="H8I8_0" arrivalPos="491.30" arrivalSpeed="14.41" duration="142.00" routeLength="1993.50" waitingTime="0.00" waitingCount="0" stopTime="0.00" timeLoss="9.31" rerouteNo="0" devices="tripinfo_f_1_10.0" vType="DEFAULT_VEHTYPE" speedFactor="1.08" vaporized=""/>
    <tripinfo id="f_1_2.0" depart="0.00" departLane="A8B8_0" departPos="5.10" departSpeed="0.00" departDelay="0.00" arrival="146.00" arrivalLane="D8E8_0" arrivalPos="492.80" arrivalSpeed="14.07" duration="146.00" routeLength="1994.90" waitingTime="0.00" waitingCount="0" stopTime="0.00" timeLoss="10.25" rerouteNo="0" devices="tripinfo_f_1_2.0" vType="DEFAULT_VEHTYPE" speedFactor="1.06" vaporized=""/>
    <tripinfo id="f_1_12.0" depart="1.00" departLane="G11G10_0" departPos="5.10" departSpeed="0.00" departDelay="0.00" arrival="148.00" arrivalLane="G8G7_0" arrivalPos="492.80" arrivalSpeed="14.48" duration="147.00" routeLength="1994.90" waitingTime="0.00" waitingCount="0" stopTime="0.00" timeLoss="9.64" rerouteNo="0" devices="tripinfo_f_1_12.0" vType="DEFAULT_VEHTYPE" speedFactor="1.05" vaporized=""/>
    <tripinfo id="f_1_10.1" depart="12.00" departLane="E8F8_0" departPos="5.10" departSpeed="0.00" departDelay="0.00" arrival="149.00" arrivalLane="H8I8_0" arrivalPos="491.30" arrivalSpeed="14.73" duration="137.00" routeLength="1993.50" waitingTime="0.00" waitingCount="0" stopTime="0.00" timeLoss="8.86" rerouteNo="0" devices="tripinfo_f_1_10.1" vType="DEFAULT_VEHTYPE" speedFactor="1.12" vaporized=""/>
    <tripinfo id="f_1_7.0" depart="0.00" departLane="D6D7_0" departPos="5.10" departSpeed="0.00" departDelay="0.00" arrival="153.00" arrivalLane="D9D10_0" arrivalPos="491.30" arrivalSpeed="13.23" duration="153.00" routeLength="1993.50" waitingTime="0.00" waitingCount="0" stopTime="0.00" timeLoss="10.06" rerouteNo="0" devices="tripinfo_f_1_7.0" vType="DEFAULT_VEHTYPE" speedFactor="1.01" vaporized=""/>
    <tripinfo id="f_1_7.1" depart="3.00" departLane="D6D7_0" departPos="5.10" departSpeed="0.00" departDelay="2.00" arrival="154.00" arrivalLane="D9D10_0" arrivalPos="491.30" arrivalSpeed="13.73" duration="151.00" routeLength="1993.50" waitingTime="0.00" waitingCount="0" stopTime="0.00" timeLoss="10.87" rerouteNo="0" devices="tripinfo_f_1_7.1" vType="DEFAULT_VEHTYPE" speedFactor="1.03" vaporized=""/>
    <tripinfo id="f_1_23.0" depart="1.00" departLane="D2D3_0" departPos="5.10" departSpeed="0.00" departDelay="0.00" arrival="156.00" arrivalLane="D5D6_0" arrivalPos="492.80" arrivalSpeed="12.94" duration="155.00" routeLength="1994.90" waitingTime="0.00" waitingCount="0" stopTime="0.00" timeLoss="9.63" rerouteNo="0" devices="tripinfo_f_1_23.0" vType="DEFAULT_VEHTYPE" speedFactor="0.99" vaporized=""/>
    <tripinfo id="f_1_25.0" depart="3.00" departLane="J5I5_0" departPos="5.10" departSpeed="0.00" departDelay="0.00" arrival="156.00" arrivalLane="G5F5_0" arrivalPos="492.80" arrivalSpeed="13.54" duration="153.00" routeLength="1994.90" waitingTime="0.00" waitingCount="0" stopTime="0.00" timeLoss="9.36" rerouteNo="0" devices="tripinfo_f_1_25.0" vType="DEFAULT_VEHTYPE" speedFactor="1.01" vaporized=""/>
    <tripinfo id="f_1_9.1" depart="6.00" departLane="J9I9_0" departPos="5.10" departSpeed="0.00" departDelay="2.00" arrival="156.00" arrivalLane="G9F9_0" arrivalPos="492.80" arrivalSpeed="13.08" duration="150.00" routeLength="1994.90" waitingTime="0.00" waitingCount="0" stopTime="0.00" timeLoss="9.15" rerouteNo="0" devices="tripinfo_f_1_9.1" vType="DEFAULT_VEHTYPE" speedFactor="1.02" vaporized=""/>
    <tripinfo id="f_1_10.2" depart="15.00" departLane="E8F8_0" departPos="5.10" departSpeed="0.00" departDelay="1.00" arrival="156.00" arrivalLane="H8I8_0" arrivalPos="491.30" arrivalSpeed="14.00" duration="141.00" routeLength="1993.50" waitingTime="0.00" waitingCount="0" stopTime="0.00" timeLoss="9.44" rerouteNo="0" devices="tripinfo_f_1_10.2" vType="DEFAULT_VEHTYPE" speedFactor="1.10" vaporized=""/>
    <tripinfo id="f_1_7.2" depart="6.00" departLane="D6D7_0" departPos="5.10" departSpeed="0.00" departDelay="4.00" arrival="157.00" arrivalLane="D9D10_0" arrivalPos="491.30" arrivalSpeed="13.10" duration="151.00" routeLength="1993.50" waitingTime="0.00" waitingCount="0" stopTime="0.00" timeLoss="9.75" rerouteNo="0" devices="tripinfo_f_1_7.2" vType="DEFAULT_VEHTYPE" speedFactor="1.02" vaporized=""/>
    <tripinfo id="f_1_25.1" depart="6.00" departLane="J5I5_0" departPos="5.10" departSpeed="0.00" departDelay="2.00" arrival="157.00" arrivalLane="G5F5_0" arrivalPos="492.80" arrivalSpeed="15.28" duration="151.00" routeLength="1994.90" waitingTime="0.00" waitingCount="0" stopTime="0.00" timeLoss="20.51" rerouteNo="0" devices="tripinfo_f_1_25.1" vType="DEFAULT_VEHTYPE" speedFactor="1.10" vaporized=""/>
    <tripinfo id="f_1_17.0" depart="6.00" departLane="F5E5_0" departPos="5.10" departSpeed="0.00" departDelay="0.00" arrival="157.00" arrivalLane="C5B5_0" arrivalPos="491.30" arrivalSpeed="13.30" duration="151.00" routeLength="1993.50" waitingTime="0.00" waitingCount="0" stopTime="0.00" timeLoss="9.76" rerouteNo="0" devices="tripinfo_f_1_17.0" vType="DEFAULT_VEHTYPE" speedFactor="1.02" vaporized=""/>
    <tripinfo id="f_1_23.1" depart="5.00" departLane="D2D3_0" departPos="5.10" departSpeed="0.00" departDelay="0.00" arrival="158.00" arrivalLane="D5D6_0" arrivalPos="492.80" arrivalSpeed="14.15" duration="153.00" routeLength="1994.90" waitingTime="0.00" waitingCount="0" stopTime="0.00" timeLoss="14.64" rerouteNo="0" devices="tripinfo_f_1_23.1" vType="DEFAULT_VEHTYPE" speedFactor="1.04" vaporized=""/>
    <tripinfo id="f_1_25.2" depart="9.00" departLane="J5I5_0" departPos="5.10" departSpeed="0.00" departDelay="4.00" arrival="159.00" arrivalLane="G5F5_0" arrivalPos="492.80" arrivalSpeed="15.00" duration="150.00" routeLength="1994.90" waitingTime="0.00" waitingCount="0" stopTime="0.00" timeLoss="17.51" rerouteNo="0" devices="tripinfo_f_1_25.2" vType="DEFAULT_VEHTYPE" speedFactor="1.09" vaporized=""/>
    <tripinfo id="f_1_7.3" depart="9.00" departLane="D6D7_0" departPos="5.10" departSpeed="0.00" departDelay="2.00" arrival="159.00" arrivalLane="D9D10_0" arrivalPos="491.30" arrivalSpeed="13.21" duration="150.00" routeLength="1993.50" waitingTime="0.00" waitingCount="0" stopTime="0.00" timeLoss="9.78" rerouteNo="0" devices="tripinfo_f_1_7.3" vType="DEFAULT_VEHTYPE" speedFactor="1.02" vaporized=""/>
    <tripinfo id="f_1_18.0" depart="8.00" departLane="A4B4_0" departPos="5.10" departSpeed="0.00" departDelay="0.00" arrival="159.00" arrivalLane="D4E4_0" arrivalPos="492.80" arrivalSpeed="14.10" duration="151.00" routeLength="1994.90" waitingTime="0.00" waitingCount="0" stopTime="0.00" timeLoss="9.72" rerouteNo="0" devices="tripinfo_f_1_18.0" vType="DEFAULT_VEHTYPE" speedFactor="1.02" vaporized=""/>
    <tripinfo id="f_1_4.1" depart="5.00" departLane="C11C10_0" departPos="5.10" departSpeed="0.00" departDelay="1.00" arrival="161.00" arrivalLane="C8C7_0" arrivalPos="492.80" arrivalSpeed="13.16" duration="156.00" routeLength="1994.90" waitingTime="0.00" waitingCount="0" stopTime="0.00" timeLoss="11.05" rerouteNo="0" devices="tripinfo_f_1_4.1" vType="DEFAULT_VEHTYPE" speedFactor="0.99" vaporized=""/>
    <tripinfo id="f_1_12.1" depart="4.00" departLane="G11G10_0" departPos="5.10" departSpeed="0.00" departDelay="2.00" arrival="162.00" arrivalLane="G8G7_0" arrivalPos="492.80" arrivalSpeed="12.80" duration="158.00" routeLength="1994.90" waitingTime="0.00" waitingCount="0" stopTime="0.00" timeLoss="10.11" rerouteNo="0" devices="tripinfo_f_1_12.1" vType="DEFAULT_VEHTYPE" speedFactor="0.98" vaporized=""/>
    <tripinfo id="f_1_15.0" depart="4.00" departLane="H6H7_0" departPos="5.10" departSpeed="0.00" departDelay="0.00" arrival="162.00" arrivalLane="H9H10_0" arrivalPos="491.30" arrivalSpeed="13.29" duration="158.00" routeLength="1993.50" waitingTime="0.00" waitingCount="0" stopTime="0.00" timeLoss="10.35" rerouteNo="0" devices="tripinfo_f_1_15.0" vType="DEFAULT_VEHTYPE" speedFactor="0.97" vaporized=""/>
    <tripinfo id="f_1_15.1" depart="8.00" departLane="H6H7_0" departPos="5.10" departSpeed="0.00" departDelay="0.00" arrival="164.00" arrivalLane="H9H10_0" arrivalPos="491.30" arrivalSpeed="14.26" duration="156.00" routeLength="1993.50" waitingTime="0.00" waitingCount="0" stopTime="0.00" timeLoss="17.49" rerouteNo="0" devices="tripinfo_f_1_15.1" vType="DEFAULT_VEHTYPE" speedFactor="1.04" vaporized=""/>
    <tripinfo id="f_1_31.0" depart="0.00" departLane="H2H3_0" departPos="5.10" departSpeed="0.00" departDelay="0.00" arrival="165.00" arrivalLane="H5H6_0" arrivalPos="492.80" arrivalSpeed="12.46" duration="165.00" routeLength="1994.90" waitingTime="0.00" waitingCount="0" stopTime="0.00" timeLoss="11.49" rerouteNo="0" devices="tripinfo_f_1_31.0" vType="DEFAULT_VEHTYPE" speedFactor="0.94" vaporized=""/>
    <tripinfo id="f_1_28.0" depart="1.00" departLane="G7G6_0" departPos="5.10" departSpeed="0.00" departDelay="0.00" arrival="167.00" arrivalLane="G4G3_0" arrivalPos="491.30" arrivalSpeed="12.37" duration="166.00" routeLength="1993.50" waitingTime="0.00" waitingCount="0" stopTime="0.00" timeLoss="10.95" rerouteNo="0" devices="tripinfo_f_1_28.0" vType="DEFAULT_VEHTYPE" speedFactor="0.93" vaporized=""/>
    <tripinfo id="f_1_31.1" depart="3.00" departLane="H2H3_0" departPos="5.10" departSpeed="0.00" departDelay="2.00" arrival="167.00" arrivalLane="H5H6_0" arrivalPos="492.80" arrivalSpeed="12.64" duration="164.00" routeLength="1994.90" waitingTime="0.00" waitingCount="0" stopTime="0.00" timeLoss="11.25" rerouteNo="0" devices="tripinfo_f_1_31.1" vType="DEFAULT_VEHTYPE" speedFactor="0.94" vaporized=""/>
    <tripinfo id="f_1_11.0" depart="6.00" departLane="J8I8_0" departPos="5.10" departSpeed="0.00" departDelay="0.00" arrival="170.00" arrivalLane="G8F8_0" arrivalPos="492.80" arrivalSpeed="15.08" duration="164.00" routeLength="1994.90" waitingTime="19.00" waitingCount="2" stopTime="0.00" timeLoss="41.04" rerouteNo="0" devices="tripinfo_f_1_11.0" vType="DEFAULT_VEHTYPE" speedFactor="1.17" vaporized=""/>
    <tripinfo id="f_1_14.0" depart="1.00" departLane="H11H10_0" departPos="5.10" departSpeed="0.00" departDelay="0.00" arrival="171.00" arrivalLane="H8H7_0" arrivalPos="492.80" arrivalSpeed="14.52" duration="170.00" routeLength="1994.90" waitingTime="23.00" waitingCount="2" stopTime="0.00" timeLoss="42.06" rerouteNo="0" devices="tripinfo_f_1_14.0" vType="DEFAULT_VEHTYPE" speedFactor="1.12" vaporized=""/>
    <tripinfo id="f_1_19.0" depart="3.00" departLane="F4E4_0" departPos="5.10" departSpeed="0.00" departDelay="0.00" arrival="171.00" arrivalLane="C4B4_0" arrivalPos="491.30" arrivalSpeed="15.49" duration="168.00" routeLength="1993.50" waitingTime="24.00" waitingCount="2" stopTime="0.00" timeLoss="45.35" rerouteNo="0" devices="tripinfo_f_1_19.0" vType="DEFAULT_VEHTYPE" speedFactor="1.18" vaporized=""/>
    <tripinfo id="f_1_3.0" depart="1.00" departLane="F8E8_0" departPos="5.10" departSpeed="0.00" departDelay="0.00" arrival="173.00" arrivalLane="C8B8_0" arrivalPos="491.30" arrivalSpeed="14.77" duration="172.00" routeLength="1993.50" waitingTime="20.00" waitingCount="2" stopTime="0.00" timeLoss="39.77" rerouteNo="0" devices="tripinfo_f_1_3.0" vType="DEFAULT_VEHTYPE" speedFactor="1.09" vaporized=""/>
    <tripinfo id="f_1_16.0" depart="0.00" departLane="A5B5_0" departPos="5.10" departSpeed="0.00" departDelay="0.00" arrival="175.00" arrivalLane="D5E5_0" arrivalPos="492.80" arrivalSpeed="13.52" duration="175.00" routeLength="1994.90" waitingTime="14.00" waitingCount="2" stopTime="0.00" timeLoss="34.77" rerouteNo="0" devices="tripinfo_f_1_16.0" vType="DEFAULT_VEHTYPE" speedFactor="1.03" vaporized=""/>
    <tripinfo id="f_1_22.0" depart="0.00" departLane="D7D6_0" departPos="5.10" departSpeed="0.00" departDelay="0.00" arrival="175.00" arrivalLane="D4D3_0" arrivalPos="491.30" arrivalSpeed="14.18" duration="175.00" routeLength="1993.50" waitingTime="17.00" waitingCount="2" stopTime="0.00" timeLoss="36.91" rerouteNo="0" devices="tripinfo_f_1_22.0" vType="DEFAULT_VEHTYPE" speedFactor="1.05" vaporized=""/>
    <tripinfo id="f_1_8.0" depart="2.00" departLane="E9F9_0" departPos="5.10" departSpeed="0.00" departDelay="0.00" arrival="175.00" arrivalLane="H9I9_0" arrivalPos="491.30" arrivalSpeed="13.53" duration="173.00" routeLength="1993.50" waitingTime="11.00" waitingCount="2" stopTime="0.00" timeLoss="30.37" rerouteNo="0" devices="tripinfo_f_1_8.0" vType="DEFAULT_VEHTYPE" speedFactor="1.01" vaporized=""/>
    <tripinfo id="f_1_19.1" depart="6.00" departLane="F4E4_0" departPos="5.10" departSpeed="0.00" departDelay="1.00" arrival="175.00" arrivalLane="C4B4_0" arrivalPos="491.30" arrivalSpeed="14.05" duration="169.00" routeLength="1993.50" waitingTime="14.00" waitingCount="2" stopTime="0.00" timeLoss="37.07" rerouteNo="0" devices="tripinfo_f_1_19.1" vType="DEFAULT_VEHTYPE" speedFactor="1.09" vaporized=""/>
    <tripinfo id="f_1_29.0" depart="6.00" departLane="G2G3_0" departPos="5.10" departSpeed="0.00" departDelay="0.00" arrival="175.00" arrivalLane="G5G6_0" arrivalPos="492.80" arrivalSpeed="13.78" duration="169.00" routeLength="1994.90" waitingTime="5.00" waitingCount="2" stopTime="0.00" timeLoss="24.65" rerouteNo="0" devices="tripinfo_f_1_29.0" vType="DEFAULT_VEHTYPE" speedFactor="1.00" vaporized=""/>
    <tripinfo id="f_1_24.0" depart="8.00" departLane="E5F5_0" departPos="5.10" departSpeed="0.00" departDelay="0.00" arrival="175.00" arrivalLane="H5I5_0" arrivalPos="491.30" arrivalSpeed="13.35" duration="167.00" routeLength="1993.50" waitingTime="3.00" waitingCount="2" stopTime="0.00" timeLoss="25.93" rerouteNo="0" devices="tripinfo_f_1_24.0" vType="DEFAULT_VEHTYPE" speedFactor="1.02" vaporized=""/>
    <tripinfo id="f_1_11.1" depart="23.00" departLane="J8I8_0" departPos="5.10" departSpeed="0.00" departDelay="0.00" arrival="175.00" arrivalLane="G8F8_0" arrivalPos="492.80" arrivalSpeed="13.65" duration="152.00" routeLength="1994.90" waitingTime="1.00" waitingCount="1" stopTime="0.00" timeLoss="16.81" rerouteNo="0" devices="tripinfo_f_1_11.1" vType="DEFAULT_VEHTYPE" speedFactor="1.06" vaporized=""/>
    <tripinfo id="f_1_5.0" depart="0.00" departLane="C6C7_0" departPos="5.10" departSpeed="0.00" departDelay="0.00" arrival="176.00" arrivalLane="C9C10_0" arrivalPos="491.30" arrivalSpeed="12.79" duration="176.00" routeLength="1993.50" waitingTime="5.00" waitingCount="1" stopTime="0.00" timeLoss="22.78" rerouteNo="0" devices="tripinfo_f_1_5.0" vType="DEFAULT_VEHTYPE" speedFactor="0.94" vaporized=""/>
    <tripinfo id="f_1_27.0" depart="5.00" departLane="J4I4_0" departPos="5.10" departSpeed="0.00" departDelay="0.00" arrival="176.00" arrivalLane="G4F4_0" arrivalPos="492.80" arrivalSpeed="12.85" duration="171.00" routeLength="1994.90" waitingTime="5.00" waitingCount="2" stopTime="0.00" timeLoss="26.63" rerouteNo="0" devices="tripinfo_f_1_27.0" vType="DEFAULT_VEHTYPE" speedFactor="1.00" vaporized=""/>
    <tripinfo id="f_1_16.1" depart="7.00" departLane="A5B5_0" departPos="5.10" departSpeed="0.00" departDelay="0.00" arrival="176.00" arrivalLane="D5E5_0" arrivalPos="492.80" arrivalSpeed="13.79" duration="169.00" routeLength="1994.90" waitingTime="10.00" waitingCount="2" stopTime="0.00" timeLoss="36.20" rerouteNo="0" devices="tripinfo_f_1_16.1" vType="DEFAULT_VEHTYPE" speedFactor="1.08" vaporized=""/>
    <tripinfo id="f_1_19.2" depart="9.00" departLane="F4E4_0" departPos="5.10" departSpeed="0.00" departDelay="3.00" arrival="177.00" arrivalLane="C4B4_0" arrivalPos="491.30" arrivalSpeed="14.42" duration="168.00" routeLength="1993.50" waitingTime="14.00" waitingCount="2" stopTime="0.00" timeLoss="36.55" rerouteNo="0" devices="tripinfo_f_1_19.2" vType="DEFAULT_VEHTYPE" speedFactor="1.10" vaporized=""/>
    <tripinfo id="f_1_8.1" depart="13.00" departLane="E9F9_0" departPos="5.10" departSpeed="0.00" departDelay="0.00" arrival="177.00" arrivalLane="H9I9_0" arrivalPos="491.30" arrivalSpeed="12.91" duration="164.00" routeLength="1993.50" waitingTime="1.00" waitingCount="1" stopTime="0.00" timeLoss="22.35" rerouteNo="0" devices="tripinfo_f_1_8.1" vType="DEFAULT_VEHTYPE" speedFactor="1.01" vaporized=""/>
    <tripinfo id="f_1_24.1" depart="17.00" departLane="E5F5_0" departPos="5.10" departSpeed="0.00" departDelay="0.00" arrival="177.00" arrivalLane="H5I5_0" arrivalPos="491.30" arrivalSpeed="13.90" duration="160.00" routeLength="1993.50" waitingTime="0.00" waitingCount="0" stopTime="0.00" timeLoss="16.92" rerouteNo="0" devices="tripinfo_f_1_24.1" vType="DEFAULT_VEHTYPE" speedFactor="1.00" vaporized=""/>
    <tripinfo id="f_1_29.1" depart="25.00" departLane="G2G3_0" departPos="5.10" departSpeed="0.00" departDelay="0.00" arrival="177.00" arrivalLane="G5G6_0" arrivalPos="492.80" arrivalSpeed="13.36" duration="152.00" routeLength="1994.90" waitingTime="0.00" waitingCount="0" stopTime="0.00" timeLoss="12.81" rerouteNo="0" devices="tripinfo_f_1_29.1" vType="DEFAULT_VEHTYPE" speedFactor="1.04" vaporized=""/>
    <tripinfo id="f_1_27.1" depart="8.00" departLane="J4I4_0" departPos="5.10" departSpeed="0.00" departDelay="2.00" arrival="178.00" arrivalLane="G4F4_0" arrivalPos="492.80" arrivalSpeed="13.85" duration="170.00" routeLength="1994.90" waitingTime="2.00" waitingCount="1" stopTime="0.00" timeLoss="26.30" rerouteNo="0" devices="tripinfo_f_1_27.1" vType="DEFAULT_VEHTYPE" speedFactor="1.00" vaporized=""/>
    <tripinfo id="f_1_22.1" depart="10.00" departLane="D7D6_0" departPos="5.10" departSpeed="0.00" departDelay="0.00" arrival="178.00" arrivalLane="D4D3_0" arrivalPos="491.30" arrivalSpeed="13.37" duration="168.00" routeLength="1993.50" waitingTime="1.00" waitingCount="1" stopTime="0.00" timeLoss="20.78" rerouteNo="0" devices="tripinfo_f_1_22.1" vType="DEFAULT_VEHTYPE" speedFactor="0.98" vaporized=""/>
    <tripinfo id="f_1_5.1" depart="19.00" departLane="C6C7_0" departPos="5.10" departSpeed="0.00" departDelay="0.00" arrival="178.00" arrivalLane="C9C10_0" arrivalPos="491.30" arrivalSpeed="13.34" duration="159.00" routeLength="1993.50" waitingTime="0.00" waitingCount="0" stopTime="0.00" timeLoss="20.43" rerouteNo="0" devices="tripinfo_f_1_5.1" vType="DEFAULT_VEHTYPE" speedFactor="1.04" vaporized=""/>
    <tripinfo id="f_1_11.2" depart="38.00" departLane="J8I8_0" departPos="5.10" departSpeed="0.00" departDelay="0.00" arrival="178.00" arrivalLane="G8F8_0" arrivalPos="492.80" arrivalSpeed="14.12" duration="140.00" routeLength="1994.90" waitingTime="0.00" waitingCount="0" stopTime="0.00" timeLoss="9.11" rerouteNo="0" devices="tripinfo_f_1_11.2" vType="DEFAULT_VEHTYPE" speedFactor="1.10" vaporized=""/>
    <tripinfo id="f_1_30.0" depart="0.00" departLane="H7H6_0" departPos="5.10" departSpeed="0.00" departDelay="0.00" arrival="179.00" arrivalLane="H4H3_0" arrivalPos="491.30" arrivalSpeed="11.57" duration="179.00" routeLength="1993.50" waitingTime="0.00" waitingCount="0" stopTime="0.00" timeLoss="16.33" rerouteNo="0" devices="tripinfo_f_1_30.0" vType="DEFAULT_VEHTYPE" speedFactor="0.89" vaporized=""/>
    <tripinfo id="f_1_19.3" depart="12.00" departLane="F4E4_0" departPos="5.10" departSpeed="0.00" departDelay="5.00" arrival="179.00" arrivalLane="C4B4_0" arrivalPos="491.30" arrivalSpeed="14.28" duration="167.00" routeLength="1993.50" waitingTime="12.00" waitingCount="2" stopTime="0.00" timeLoss="38.03" rerouteNo="0" devices="tripinfo_f_1_19.3" vType="DEFAULT_VEHTYPE" speedFactor="1.12" vaporized=""/>
    <tripinfo id="f_1_14.1" depart="10.00" departLane="H11H10_0" departPos="5.10" departSpeed="0.00" departDelay="0.00" arrival="179.00" arrivalLane="H8H7_0" arrivalPos="492.80" arrivalSpeed="12.94" duration="169.00" routeLength="1994.90" waitingTime="0.00" waitingCount="0" stopTime="0.00" timeLoss="19.63" rerouteNo="0" devices="tripinfo_f_1_14.1" vType="DEFAULT_VEHTYPE" speedFactor="0.97" vaporized=""/>
    <tripinfo id="f_1_8.2" depart="22.00" departLane="E9F9_0" departPos="5.10" departSpeed="0.00" departDelay="0.00" arrival="179.00" arrivalLane="H9I9_0" arrivalPos="491.30" arrivalSpeed="13.95" duration="157.00" routeLength="1993.50" waitingTime="0.00" waitingCount="0" stopTime="0.00" timeLoss="17.19" rerouteNo="0" devices="tripinfo_f_1_8.2" vType="DEFAULT_VEHTYPE" speedFactor="1.03" vaporized=""/>
    <tripinfo id="f_1_29.2" depart="31.00" departLane="G2G3_0" departPos="5.10" departSpeed="0.00" departDelay="0.00" arrival="179.00" arrivalLane="G5G6_0" arrivalPos="492.80" arrivalSpeed="14.45" duration="148.00" routeLength="1994.90" waitingTime="0.00" waitingCount="0" stopTime="0.00" timeLoss="18.01" rerouteNo="0" devices="tripinfo_f_1_29.2" vType="DEFAULT_VEHTYPE" speedFactor="1.11" vaporized=""/>
    <tripinfo id="f_1_13.0" depart="2.00" departLane="G6G7_0" departPos="5.10" departSpeed="0.00" departDelay="0.00" arrival="180.00" arrivalLane="G9G10_0" arrivalPos="491.30" arrivalSpeed="11.80" duration="178.00" routeLength="1993.50" waitingTime="0.00" waitingCount="0" stopTime="0.00" timeLoss="15.82" rerouteNo="0" devices="tripinfo_f_1_13.0" vType="DEFAULT_VEHTYPE" speedFactor="0.89" vaporized=""/>
    <tripinfo id="f_1_27.2" depart="11.00" departLane="J4I4_0" departPos="5.10" departSpeed="0.00" departDelay="2.00" arrival="180.00" arrivalLane="G4F4_0" arrivalPos="492.80" arrivalSpeed="13.97" duration="169.00" routeLength="1994.90" waitingTime="1.00" waitingCount="1" stopTime="0.00" timeLoss="29.11" rerouteNo="0" devices="tripinfo_f_1_27.2" vType="DEFAULT_VEHTYPE" speedFactor="1.03" vaporized=""/>
    <tripinfo id="f_1_22.2" depart="13.00" departLane="D7D6_0" departPos="5.10" departSpeed="0.00" departDelay="2.00" arrival="180.00" arrivalLane="D4D3_0" arrivalPos="491.30" arrivalSpeed="14.57" duration="167.00" routeLength="1993.50" waitingTime="0.00" waitingCount="0" stopTime="0.00" timeLoss="34.91" rerouteNo="0" devices="tripinfo_f_1_22.2" vType="DEFAULT_VEHTYPE" speedFactor="1.09" vaporized=""/>
    <tripinfo id="f_1_5.2" depart="22.00" departLane="C6C7_0" departPos="5.10" departSpeed="0.00" departDelay="2.00" arrival="180.00" arrivalLane="C9C10_0" arrivalPos="491.30" arrivalSpeed="14.89" duration="158.00" routeLength="1993.50" waitingTime="0.00" waitingCount="0" stopTime="0.00" timeLoss="29.38" rerouteNo="0" devices="tripinfo_f_1_5.2" vType="DEFAULT_VEHTYPE" speedFactor="1.12" vaporized=""/>
    <tripinfo id="f_1_11.3" depart="41.00" departLane="J8I8_0" departPos="5.10" departSpeed="0.00" departDelay="0.00" arrival="180.00" arrivalLane="G8F8_0" arrivalPos="492.80" arrivalSpeed="15.52" duration="139.00" routeLength="1994.90" waitingTime="0.00" waitingCount="0" stopTime="0.00" timeLoss="16.31" rerouteNo="0" devices="tripinfo_f_1_11.3" vType="DEFAULT_VEHTYPE" speedFactor="1.18" vaporized=""/>
    <tripinfo id="f_1_30.1" depart="3.00" departLane="H7H6_0" departPos="5.10" departSpeed="0.00" departDelay="2.00" arrival="181.00" arrivalLane="H4H3_0" arrivalPos="491.30" arrivalSpeed="12.05" duration="178.00" routeLength="1993.50" waitingTime="0.00" waitingCount="0" stopTime="0.00" timeLoss="13.74" rerouteNo="0" devices="tripinfo_f_1_30.1" vType="DEFAULT_VEHTYPE" speedFactor="0.88" vaporized=""/>
    <tripinfo id="f_1_3.1" depart="4.00" departLane="F8E8_0" departPos="5.10" departSpeed="0.00" departDelay="2.00" arrival="181.00" arrivalLane="C8B8_0" arrivalPos="491.30" arrivalSpeed="12.47" duration="177.00" routeLength="1993.50" waitingTime="1.00" waitingCount="1" stopTime="0.00" timeLoss="22.96" rerouteNo="0" devices="tripinfo_f_1_3.1" vType="DEFAULT_VEHTYPE" speedFactor="0.94" vaporized=""/>
    <tripinfo id="f_1_13.1" depart="5.00" departLane="G6G7_0" departPos="5.10" departSpeed="0.00" departDelay="2.00" arrival="181.00" arrivalLane="G9G10_0" arrivalPos="491.30" arrivalSpeed="12.39" duration="176.00" routeLength="1993.50" waitingTime="0.00" waitingCount="0" stopTime="0.00" timeLoss="21.81" rerouteNo="0" devices="tripinfo_f_1_13.1" vType="DEFAULT_VEHTYPE" speedFactor="0.93" vaporized=""/>
    <tripinfo id="f_1_14.2" depart="13.00" departLane="H11H10_0" departPos="5.10" departSpeed="0.00" departDelay="0.00" arrival="181.00" arrivalLane="H8H7_0" arrivalPos="492.80" arrivalSpeed="12.78" duration="168.00" routeLength="1994.90" waitingTime="0.00" waitingCount="0" stopTime="0.00" timeLoss="17.80" rerouteNo="0" devices="tripinfo_f_1_14.2" vType="DEFAULT_VEHTYPE" speedFactor="0.96" vaporized=""/>
    <tripinfo id="f_1_27.3" depart="15.00" departLane="J4I4_0" departPos="5.10" departSpeed="0.00" departDelay="0.00" arrival="181.00" arrivalLane="G4F4_0" arrivalPos="492.80" arrivalSpeed="13.06" duration="166.00" routeLength="1994.90" waitingTime="1.00" waitingCount="1" stopTime="0.00" timeLoss="26.67" rerouteNo="0" devices="tripinfo_f_1_27.3" vType="DEFAULT_VEHTYPE" speedFactor="1.03" vaporized=""/>
    <tripinfo id="f_1_8.3" depart="28.00" departLane="E9F9_0" departPos="5.10" departSpeed="0.00" departDelay="0.00" arrival="181.00" arrivalLane="H9I9_0" arrivalPos="491.30" arrivalSpeed="15.66" duration="153.00" routeLength="1993.50" waitingTime="0.00" waitingCount="0" stopTime="0.00" timeLoss="27.19" rerouteNo="0" devices="tripinfo_f_1_8.3" vType="DEFAULT_VEHTYPE" speedFactor="1.15" vaporized=""/>
    <tripinfo id="f_1_30.2" depart="6.00" departLane="H7H6_0" departPos="5.10" departSpeed="0.00" departDelay="4.00" arrival="182.00" arrivalLane="H4H3_0" arrivalPos="491.30" arrivalSpeed="12.16" duration="176.00" routeLength="1993.50" waitingTime="0.00" waitingCount="0" stopTime="0.00" timeLoss="19.45" rerouteNo="0" devices="tripinfo_f_1_30.2" vType="DEFAULT_VEHTYPE" speedFactor="0.92" vaporized=""/>
    <tripinfo id="f_1_3.2" depart="7.00" departLane="F8E8_0" departPos="5.10" departSpeed="0.00" departDelay="4.00" arrival="182.00" arrivalLane="C8B8_0" arrivalPos="491.30" arrivalSpeed="12.55" duration="175.00" routeLength="1993.50" waitingTime="0.00" waitingCount="0" stopTime="0.00" timeLoss="23.64" rerouteNo="0" devices="tripinfo_f_1_3.2" vType="DEFAULT_VEHTYPE" speedFactor="0.95" vaporized=""/>
    <tripinfo id="f_1_22.3" depart="16.00" departLane="D7D6_0" departPos="5.10" departSpeed="0.00" departDelay="0.00" arrival="182.00" arrivalLane="D4D3_0" arrivalPos="491.30" arrivalSpeed="13.33" duration="166.00" routeLength="1993.50" waitingTime="0.00" waitingCount="0" stopTime="0.00" timeLoss="26.14" rerouteNo="0" devices="tripinfo_f_1_22.3" vType="DEFAULT_VEHTYPE" speedFactor="1.03" vaporized=""/>
    <tripinfo id="f_1_13.2" depart="8.00" departLane="G6G7_0" departPos="5.10" departSpeed="0.00" departDelay="1.00" arrival="183.00" arrivalLane="G9G10_0" arrivalPos="491.30" arrivalSpeed="12.34" duration="175.00" routeLength="1993.50" waitingTime="0.00" waitingCount="0" stopTime="0.00" timeLoss="26.69" rerouteNo="0" devices="tripinfo_f_1_13.2" vType="DEFAULT_VEHTYPE" speedFactor="0.97" vaporized=""/>
    <tripinfo id="f_1_14.3" depart="16.00" departLane="H11H10_0" departPos="5.10" departSpeed="0.00" departDelay="2.00" arrival="183.00" arrivalLane="H8H7_0" arrivalPos="492.80" arrivalSpeed="13.96" duration="167.00" routeLength="1994.90" waitingTime="0.00" waitingCount="0" stopTime="0.00" timeLoss="23.79" rerouteNo="0" devices="tripinfo_f_1_14.3" vType="DEFAULT_VEHTYPE" speedFactor="1.01" vaporized=""/>
    <tripinfo id="f_1_27.4" depart="18.00" departLane="J4I4_0" departPos="5.10" departSpeed="0.00" departDelay="2.00" arrival="183.00" arrivalLane="G4F4_0" arrivalPos="492.80" arrivalSpeed="14.68" duration="165.00" routeLength="1994.90" waitingTime="0.00" waitingCount="0" stopTime="0.00" timeLoss="30.09" rerouteNo="0" devices="tripinfo_f_1_27.4" vType="DEFAULT_VEHTYPE" speedFactor="1.07" vaporized=""/>
    <tripinfo id="f_1_30.3" depart="9.00" departLane="H7H6_0" departPos="5.10" departSpeed="0.00" departDelay="6.00" arrival="184.00" arrivalLane="H4H3_0" arrivalPos="491.30" arrivalSpeed="14.26" duration="175.00" routeLength="1993.50" waitingTime="0.00" waitingCount="0" stopTime="0.00" timeLoss="52.15" rerouteNo="0" devices="tripinfo_f_1_30.3" vType="DEFAULT_VEHTYPE" speedFactor="1.17" vaporized=""/>