<?xml version="1.0" encoding="UTF-8"?>

<!-- generated on 2024-08-16 22:33:26 by Eclipse SUMO sumo Version 1.12.0
<configuration xmlns:xsi="http://www.w3.org/2001/XMLSchema-instance" xsi:noNamespaceSchemaLocation="http://sumo.dlr.de/xsd/sumoConfiguration.xsd">

    <input>
        <net-file value="quad_static.net.xml"/>
        <route-files value="quad_3.rou.xml"/>
    </input>

    <output>
        <summary-output value="control_summaries//summary_quad_static_3.xml"/>
        <tripinfo-output value="control_summaries//tripinfos_quad_static_3.xml"/>
    </output>

    <processing>
        <time-to-teleport value="-1"/>
    </processing>

    <traci_server>
        <remote-port value="53407"/>
    </traci_server>

</configuration>
-->

<tripinfos xmlns:xsi="http://www.w3.org/2001/XMLSchema-instance" xsi:noNamespaceSchemaLocation="http://sumo.dlr.de/xsd/tripinfo_file.xsd">
    <tripinfo id="f_1_4.0" depart="2.00" departLane="C11C10_0" departPos="5.10" departSpeed="0.00" departDelay="0.00" arrival="159.00" arrivalLane="C8C7_0" arrivalPos="492.80" arrivalSpeed="15.63" duration="157.00" routeLength="1994.90" waitingTime="15.00" waitingCount="1" stopTime="0.00" timeLoss="32.19" rerouteNo="0" devices="tripinfo_f_1_4.0" vType="DEFAULT_VEHTYPE" speedFactor="1.16" vaporized=""/>
    <tripinfo id="f_1_14.0" depart="1.00" departLane="H11H10_0" departPos="5.10" departSpeed="0.00" departDelay="0.00" arrival="161.00" arrivalLane="H8H7_0" arrivalPos="492.80" arrivalSpeed="14.92" duration="160.00" routeLength="1994.90" waitingTime="17.00" waitingCount="1" stopTime="0.00" timeLoss="31.18" rerouteNo="0" devices="tripinfo_f_1_14.0" vType="DEFAULT_VEHTYPE" speedFactor="1.12" vaporized=""/>
    <tripinfo id="f_1_22.0" depart="0.00" departLane="D7D6_0" departPos="5.10" departSpeed="0.00" departDelay="0.00" arrival="165.00" arrivalLane="D4D3_0" arrivalPos="491.30" arrivalSpeed="14.24" duration="165.00" routeLength="1993.50" waitingTime="13.00" waitingCount="1" stopTime="0.00" timeLoss="27.22" rerouteNo="0" devices="tripinfo_f_1_22.0" vType="DEFAULT_VEHTYPE" speedFactor="1.05" vaporized=""/>
    <tripinfo id="f_1_12.0" depart="1.00" departLane="G11G10_0" departPos="5.10" departSpeed="0.00" departDelay="0.00" arrival="165.00" arrivalLane="G8G7_0" arrivalPos="492.80" arrivalSpeed="14.52" duration="164.00" routeLength="1994.90" waitingTime="11.00" waitingCount="1" stopTime="0.00" timeLoss="26.64" rerouteNo="0" devices="tripinfo_f_1_12.0" vType="DEFAULT_VEHTYPE" speedFactor="1.05" vaporized=""/>
    <tripinfo id="f_1_7.0" depart="0.00" departLane="D6D7_0" departPos="5.10" departSpeed="0.00" departDelay="0.00" arrival="168.00" arrivalLane="D9D10_0" arrivalPos="491.30" arrivalSpeed="12.80" duration="168.00" routeLength="1993.50" waitingTime="9.00" waitingCount="1" stopTime="0.00" timeLoss="25.53" rerouteNo="0" devices="tripinfo_f_1_7.0" vType="DEFAULT_VEHTYPE" speedFactor="1.01" vaporized=""/>
    <tripinfo id="f_1_23.0" depart="1.00" departLane="D2D3_0" departPos="5.10" departSpeed="0.00" departDelay="0.00" arrival="169.00" arrivalLane="D5D6_0" arrivalPos="492.80" arrivalSpeed="12.52" duration="168.00" routeLength="1994.90" waitingTime="8.00" waitingCount="1" stopTime="0.00" timeLoss="22.54" rerouteNo="0" devices="tripinfo_f_1_23.0" vType="DEFAULT_VEHTYPE" speedFactor="0.99" vaporized=""/>
    <tripinfo id="f_1_29.0" depart="6.00" departLane="G2G3_0" departPos="5.10" departSpeed="0.00" departDelay="0.00" arrival="169.00" arrivalLane="G5G6_0" arrivalPos="492.80" arrivalSpeed="13.22" duration="163.00" routeLength="1994.90" waitingTime="4.00" waitingCount="1" stopTime="0.00" timeLoss="18.13" rerouteNo="0" devices="tripinfo_f_1_29.0" vType="DEFAULT_VEHTYPE" speedFactor="1.00" vaporized=""/>
    <tripinfo id="f_1_7.1" depart="3.00" departLane="D6D7_0" departPos="5.10" departSpeed="0.00" departDelay="2.00" arrival="170.00" arrivalLane="D9D10_0" arrivalPos="491.30" arrivalSpeed="12.99" duration="167.00" routeLength="1993.50" waitingTime="8.00" waitingCount="1" stopTime="0.00" timeLoss="26.38" rerouteNo="0" devices="tripinfo_f_1_7.1" vType="DEFAULT_VEHTYPE" speedFactor="1.03" vaporized=""/>
    <tripinfo id="f_1_19.0" depart="3.00" departLane="F4E4_0" departPos="5.10" departSpeed="0.00" departDelay="0.00" arrival="170.00" arrivalLane="C4B4_0" arrivalPos="491.30" arrivalSpeed="15.50" duration="167.00" routeLength="1993.50" waitingTime="31.00" waitingCount="1" stopTime="0.00" timeLoss="45.01" rerouteNo="0" devices="tripinfo_f_1_19.0" vType="DEFAULT_VEHTYPE" speedFactor="1.18" vaporized=""/>
    <tripinfo id="f_1_11.0" depart="6.00" departLane="J8I8_0" departPos="5.10" departSpeed="0.00" departDelay="0.00" arrival="170.00" arrivalLane="G8F8_0" arrivalPos="492.80" arrivalSpeed="15.27" duration="164.00" routeLength="1994.90" waitingTime="26.00" waitingCount="1" stopTime="0.00" timeLoss="40.76" rerouteNo="0" devices="tripinfo_f_1_11.0" vType="DEFAULT_VEHTYPE" speedFactor="1.17" vaporized=""/>
    <tripinfo id="f_1_9.0" depart="3.00" departLane="J9I9_0" departPos="5.10" departSpeed="0.00" departDelay="0.00" arrival="171.00" arrivalLane="G9F9_0" arrivalPos="492.80" arrivalSpeed="15.61" duration="168.00" routeLength="1994.90" waitingTime="27.00" waitingCount="1" stopTime="0.00" timeLoss="40.56" rerouteNo="0" devices="tripinfo_f_1_9.0" vType="DEFAULT_VEHTYPE" speedFactor="1.13" vaporized=""/>
    <tripinfo id="f_1_15.0" depart="4.00" departLane="H6H7_0" departPos="5.10" departSpeed="0.00" departDelay="0.00" arrival="171.00" arrivalLane="H9H10_0" arrivalPos="491.30" arrivalSpeed="12.81" duration="167.00" routeLength="1993.50" waitingTime="3.00" waitingCount="1" stopTime="0.00" timeLoss="19.09" rerouteNo="0" devices="tripinfo_f_1_15.0" vType="DEFAULT_VEHTYPE" speedFactor="0.97" vaporized=""/>
    <tripinfo id="f_1_3.0" depart="1.00" departLane="F8E8_0" departPos="5.10" departSpeed="0.00" departDelay="0.00" arrival="172.00" arrivalLane="C8B8_0" arrivalPos="491.30" arrivalSpeed="14.82" duration="171.00" routeLength="1993.50" waitingTime="24.00" waitingCount="1" stopTime="0.00" timeLoss="39.05" rerouteNo="0" devices="tripinfo_f_1_3.0" vType="DEFAULT_VEHTYPE" speedFactor="1.09" vaporized=""/>
    <tripinfo id="f_1_10.0" depart="0.00" departLane="E8F8_0" departPos="5.10" departSpeed="0.00" departDelay="0.00" arrival="173.00" arrivalLane="H8I8_0" arrivalPos="491.30" arrivalSpeed="14.91" duration="173.00" routeLength="1993.50" waitingTime="24.00" waitingCount="1" stopTime="0.00" timeLoss="39.65" rerouteNo="0" devices="tripinfo_f_1_10.0" vType="DEFAULT_VEHTYPE" speedFactor="1.08" vaporized=""/>
    <tripinfo id="f_1_2.0" depart="0.00" departLane="A8B8_0" departPos="5.10" departSpeed="0.00" departDelay="0.00" arrival="174.00" arrivalLane="D8E8_0" arrivalPos="492.80" arrivalSpeed="14.42" duration="174.00" routeLength="1994.90" waitingTime="22.00" waitingCount="1" stopTime="0.00" timeLoss="37.65" rerouteNo="0" devices="tripinfo_f_1_2.0" vType="DEFAULT_VEHTYPE" speedFactor="1.06" vaporized=""/>
    <tripinfo id="f_1_10.1" depart="12.00" departLane="E8F8_0" departPos="5.10" departSpeed="0.00" departDelay="0.00" arrival="174.00" arrivalLane="H8I8_0" arrivalPos="491.30" arrivalSpeed="15.06" duration="162.00" routeLength="1993.50" waitingTime="19.00" waitingCount="1" stopTime="0.00" timeLoss="33.92" rerouteNo="0" devices="tripinfo_f_1_10.1" vType="DEFAULT_VEHTYPE" speedFactor="1.12" vaporized=""/>
    <tripinfo id="f_1_16.0" depart="0.00" departLane="A5B5_0" departPos="5.10" departSpeed="0.00" departDelay="0.00" arrival="175.00" arrivalLane="D5E5_0" arrivalPos="492.80" arrivalSpeed="14.08" duration="175.00" routeLength="1994.90" waitingTime="19.00" waitingCount="1" stopTime="0.00" timeLoss="34.65" rerouteNo="0" devices="tripinfo_f_1_16.0" vType="DEFAULT_VEHTYPE" speedFactor="1.03" vaporized=""/>
    <tripinfo id="f_1_8.0" depart="2.00" departLane="E9F9_0" departPos="5.10" departSpeed="0.00" departDelay="0.00" arrival="175.00" arrivalLane="H9I9_0" arrivalPos="491.30" arrivalSpeed="13.60" duration="173.00" routeLength="1993.50" waitingTime="16.00" waitingCount="1" stopTime="0.00" timeLoss="30.29" rerouteNo="0" devices="tripinfo_f_1_8.0" vType="DEFAULT_VEHTYPE" speedFactor="1.01" vaporized=""/>
    <tripinfo id="f_1_19.1" depart="6.00" departLane="F4E4_0" departPos="5.10" departSpeed="0.00" departDelay="1.00" arrival="175.00" arrivalLane="C4B4_0" arrivalPos="491.30" arrivalSpeed="14.95" duration="169.00" routeLength="1993.50" waitingTime="20.00" waitingCount="1" stopTime="0.00" timeLoss="36.63" rerouteNo="0" devices="tripinfo_f_1_19.1" vType="DEFAULT_VEHTYPE" speedFactor="1.09" vaporized=""/>
    <tripinfo id="f_1_17.0" depart="6.00" departLane="F5E5_0" departPos="5.10" departSpeed="0.00" departDelay="0.00" arrival="175.00" arrivalLane="C5B5_0" arrivalPos="491.30" arrivalSpeed="13.71" duration="169.00" routeLength="1993.50" waitingTime="12.00" waitingCount="1" stopTime="0.00" timeLoss="27.11" rerouteNo="0" devices="tripinfo_f_1_17.0" vType="DEFAULT_VEHTYPE" speedFactor="1.02" vaporized=""/>
    <tripinfo id="f_1_18.0" depart="8.00" departLane="A4B4_0" departPos="5.10" departSpeed="0.00" departDelay="0.00" arrival="175.00" arrivalLane="D4E4_0" arrivalPos="492.80" arrivalSpeed="13.02" duration="167.00" routeLength="1994.90" waitingTime="11.00" waitingCount="1" stopTime="0.00" timeLoss="25.86" rerouteNo="0" devices="tripinfo_f_1_18.0" vType="DEFAULT_VEHTYPE" speedFactor="1.02" vaporized=""/>
    <tripinfo id="f_1_24.0" depart="8.00" departLane="E5F5_0" departPos="5.10" departSpeed="0.00" departDelay="0.00" arrival="175.00" arrivalLane="H5I5_0" arrivalPos="491.30" arrivalSpeed="13.65" duration="167.00" routeLength="1993.50" waitingTime="11.00" waitingCount="1" stopTime="0.00" timeLoss="26.05" rerouteNo="0" devices="tripinfo_f_1_24.0" vType="DEFAULT_VEHTYPE" speedFactor="1.02" vaporized=""/>
    <tripinfo id="f_1_25.0" depart="3.00" departLane="J5I5_0" departPos="5.10" departSpeed="0.00" departDelay="0.00" arrival="176.00" arrivalLane="G5F5_0" arrivalPos="492.80" arrivalSpeed="13.93" duration="173.00" routeLength="1994.90" waitingTime="14.00" waitingCount="1" stopTime="0.00" timeLoss="29.45" rerouteNo="0" devices="tripinfo_f_1_25.0" vType="DEFAULT_VEHTYPE" speedFactor="1.01" vaporized=""/>
    <tripinfo id="f_1_9.1" depart="6.00" departLane="J9I9_0" departPos="5.10" departSpeed="0.00" departDelay="2.00" arrival="176.00" arrivalLane="G9F9_0" arrivalPos="492.80" arrivalSpeed="13.08" duration="170.00" routeLength="1994.90" waitingTime="14.00" waitingCount="1" stopTime="0.00" timeLoss="28.78" rerouteNo="0" devices="tripinfo_f_1_9.1" vType="DEFAULT_VEHTYPE" speedFactor="1.02" vaporized=""/>
    <tripinfo id="f_1_27.0" depart="5.00" departLane="J4I4_0" departPos="5.10" departSpeed="0.00" departDelay="0.00" arrival="176.00" arrivalLane="G4F4_0" arrivalPos="492.80" arrivalSpeed="12.66" duration="171.00" routeLength="1994.90" waitingTime="10.00" waitingCount="1" stopTime="0.00" timeLoss="26.79" rerouteNo="0" devices="tripinfo_f_1_27.0" vType="DEFAULT_VEHTYPE" speedFactor="1.00" vaporized=""/>
    <tripinfo id="f_1_16.1" depart="7.00" departLane="A5B5_0" departPos="5.10" departSpeed="0.00" departDelay="0.00" arrival="176.00" arrivalLane="D5E5_0" arrivalPos="492.80" arrivalSpeed="14.43" duration="169.00" routeLength="1994.90" waitingTime="19.00" waitingCount="1" stopTime="0.00" timeLoss="35.99" rerouteNo="0" devices="tripinfo_f_1_16.1" vType="DEFAULT_VEHTYPE" speedFactor="1.08" vaporized=""/>
    <tripinfo id="f_1_25.1" depart="6.00" departLane="J5I5_0" departPos="5.10" departSpeed="0.00" departDelay="2.00" arrival="177.00" arrivalLane="G5F5_0" arrivalPos="492.80" arrivalSpeed="14.64" duration="171.00" routeLength="1994.90" waitingTime="13.00" waitingCount="1" stopTime="0.00" timeLoss="40.69" rerouteNo="0" devices="tripinfo_f_1_25.1" vType="DEFAULT_VEHTYPE" speedFactor="1.10" vaporized=""/>
    <tripinfo id="f_1_19.2" depart="9.00" departLane="F4E4_0" departPos="5.10" departSpeed="0.00" departDelay="3.00" arrival="177.00" arrivalLane="C4B4_0" arrivalPos="491.30" arrivalSpeed="14.56" duration="168.00" routeLength="1993.50" waitingTime="20.00" waitingCount="1" stopTime="0.00" timeLoss="36.10" rerouteNo="0" devices="tripinfo_f_1_19.2" vType="DEFAULT_VEHTYPE" speedFactor="1.10" vaporized=""/>
    <tripinfo id="f_1_10.2" depart="15.00" departLane="E8F8_0" departPos="5.10" departSpeed="0.00" departDelay="1.00" arrival="177.00" arrivalLane="H8I8_0" arrivalPos="491.30" arrivalSpeed="14.61" duration="162.00" routeLength="1993.50" waitingTime="14.00" waitingCount="1" stopTime="0.00" timeLoss="30.44" rerouteNo="0" devices="tripinfo_f_1_10.2" vType="DEFAULT_VEHTYPE" speedFactor="1.10" vaporized=""/>
    <tripinfo id="f_1_27.1" depart="8.00" departLane="J4I4_0" departPos="5.10" departSpeed="0.00" departDelay="2.00" arrival="178.00" arrivalLane="G4F4_0" arrivalPos="492.80" arrivalSpeed="13.73" duration="170.00" routeLength="1994.90" waitingTime="10.00" waitingCount="1" stopTime="0.00" timeLoss="26.26" rerouteNo="0" devices="tripinfo_f_1_27.1" vType="DEFAULT_VEHTYPE" speedFactor="1.00" vaporized=""/>
    <tripinfo id="f_1_19.3" depart="12.00" departLane="F4E4_0" departPos="5.10" departSpeed="0.00" departDelay="5.00" arrival="178.00" arrivalLane="C4B4_0" arrivalPos="491.30" arrivalSpeed="15.08" duration="166.00" routeLength="1993.50" waitingTime="19.00" waitingCount="1" stopTime="0.00" timeLoss="37.48" rerouteNo="0" devices="tripinfo_f_1_19.3" vType="DEFAULT_VEHTYPE" speedFactor="1.12" vaporized=""/>
    <tripinfo id="f_1_25.2" depart="9.00" departLane="J5I5_0" departPos="5.10" departSpeed="0.00" departDelay="4.00" arrival="179.00" arrivalLane="G5F5_0" arrivalPos="492.80" arrivalSpeed="13.87" duration="170.00" routeLength="1994.90" waitingTime="13.00" waitingCount="1" stopTime="0.00" timeLoss="37.75" rerouteNo="0" devices="tripinfo_f_1_25.2" vType="DEFAULT_VEHTYPE" speedFactor="1.09" vaporized=""/>
    <tripinfo id="f_1_3.1" depart="4.00" departLane="F8E8_0" departPos="5.10" departSpeed="0.00" departDelay="2.00" arrival="180.00" arrivalLane="C8B8_0" arrivalPos="491.30" arrivalSpeed="11.88" duration="176.00" routeLength="1993.50" waitingTime="7.00" waitingCount="1" stopTime="0.00" timeLoss="21.84" rerouteNo="0" devices="tripinfo_f_1_3.1" vType="DEFAULT_VEHTYPE" speedFactor="0.94" vaporized=""/>
    <tripinfo id="f_1_27.2" depart="11.00" departLane="J4I4_0" departPos="5.10" departSpeed="0.00" departDelay="2.00" arrival="180.00" arrivalLane="G4F4_0" arrivalPos="492.80" arrivalSpeed="13.09" duration="169.00" routeLength="1994.90" waitingTime="9.00" waitingCount="1" stopTime="0.00" timeLoss="29.13" rerouteNo="0" devices="tripinfo_f_1_27.2" vType="DEFAULT_VEHTYPE" speedFactor="1.03" vaporized=""/>
    <tripinfo id="f_1_2.1" depart="25.00" departLane="A8B8_0" departPos="5.10" departSpeed="0.00" departDelay="0.00" arrival="209.00" arrivalLane="D8E8_0" arrivalPos="492.80" arrivalSpeed="14.01" duration="184.00" routeLength="1994.90" waitingTime="34.00" waitingCount="1" stopTime="0.00" timeLoss="49.43" rerouteNo="0" devices="tripinfo_f_1_2.1" vType="DEFAULT_VEHTYPE" speedFactor="1.07" vaporized=""/>
    <tripinfo id="f_1_11.1" depart="23.00" departLane="J8I8_0" departPos="5.10" departSpeed="0.00" departDelay="0.00" arrival="210.00" arrivalLane="G8F8_0" arrivalPos="492.80" arrivalSpeed="14.35" duration="187.00" routeLength="1994.90" waitingTime="35.00" waitingCount="1" stopTime="0.00" timeLoss="51.20" rerouteNo="0" devices="tripinfo_f_1_11.1" vType="DEFAULT_VEHTYPE" speedFactor="1.06" vaporized=""/>
    <tripinfo id="f_1_27.3" depart="15.00" departLane="J4I4_0" departPos="5.10" departSpeed="0.00" departDelay="0.00" arrival="211.00" arrivalLane="G4F4_0" arrivalPos="492.80" arrivalSpeed="14.14" duration="196.00" routeLength="1994.90" waitingTime="42.00" waitingCount="1" stopTime="0.00" timeLoss="56.32" rerouteNo="0" devices="tripinfo_f_1_27.3" vType="DEFAULT_VEHTYPE" speedFactor="1.03" vaporized=""/>
    <tripinfo id="f_1_2.2" depart="29.00" departLane="A8B8_0" departPos="5.10" departSpeed="0.00" departDelay="0.00" arrival="211.00" arrivalLane="D8E8_0" arrivalPos="492.80" arrivalSpeed="14.85" duration="182.00" routeLength="1994.90" waitingTime="32.00" waitingCount="1" stopTime="0.00" timeLoss="49.91" rerouteNo="0" devices="tripinfo_f_1_2.2" vType="DEFAULT_VEHTYPE" speedFactor="1.09" vaporized=""/>
    <tripinfo id="f_1_11.2" depart="38.00" departLane="J8I8_0" departPos="5.10" departSpeed="0.00" departDelay="0.00" arrival="211.00" arrivalLane="G8F8_0" arrivalPos="492.80" arrivalSpeed="14.84" duration="173.00" routeLength="1994.90" waitingTime="23.00" waitingCount="1" stopTime="0.00" timeLoss="42.46" rerouteNo="0" devices="tripinfo_f_1_11.2" vType="DEFAULT_VEHTYPE" speedFactor="1.10" vaporized=""/>
    <tripinfo id="f_1_8.1" depart="13.00" departLane="E9F9_0" departPos="5.10" departSpeed="0.00" departDelay="0.00" arrival="212.00" arrivalLane="H9I9_0" arrivalPos="491.30" arrivalSpeed="13.39" duration="199.00" routeLength="1993.50" waitingTime="41.00" waitingCount="1" stopTime="0.00" timeLoss="57.02" rerouteNo="0" devices="tripinfo_f_1_8.1" vType="DEFAULT_VEHTYPE" speedFactor="1.01" vaporized=""/>
    <tripinfo id="f_1_27.4" depart="18.00" departLane="J4I4_0" departPos="5.10" departSpeed="0.00" departDelay="2.00" arrival="213.00" arrivalLane="G4F4_0" arrivalPos="492.80" arrivalSpeed="13.54" duration="195.00" routeLength="1994.90" waitingTime="42.00" waitingCount="1" stopTime="0.00" timeLoss="60.01" rerouteNo="0" devices="tripinfo_f_1_27.4" vType="DEFAULT_VEHTYPE" speedFactor="1.07" vaporized=""/>
    <tripinfo id="f_1_11.3" depart="41.00" departLane="J8I8_0" departPos="5.10" departSpeed="0.00" departDelay="0.00" arrival="213.00" arrivalLane="G8F8_0" arrivalPos="492.80" arrivalSpeed="16.28" duration="172.00" routeLength="1994.90" waitingTime="22.00" waitingCount="1" stopTime="0.00" timeLoss="49.63" rerouteNo="0" devices="tripinfo_f_1_11.3" vType="DEFAULT_VEHTYPE" speedFactor="1.18" vaporized=""/>
    <tripinfo id="f_2_2.0" depart="53.00" departLane="A8B8_0" departPos="5.10" departSpeed="0.00" departDelay="0.00" arrival="213.00" arrivalLane="D8E8_0" arrivalPos="492.80" arrivalSpeed="14.42" duration="160.00" routeLength="1994.90" waitingTime="11.00" waitingCount="1" stopTime="0.00" timeLoss="29.63" rerouteNo="0" devices="tripinfo_f_2_2.0" vType="DEFAULT_VEHTYPE" speedFactor="1.11" vaporized=""/>
    <tripinfo id="f_1_25.3" depart="12.00" departLane="J5I5_0" departPos="5.10" departSpeed="0.00" departDelay="2.00" arrival="214.00" arrivalLane="G5F5_0" arrivalPos="492.80" arrivalSpeed="12.83" duration="202.00" routeLength="1994.90" waitingTime="42.00" waitingCount="1" stopTime="0.00" timeLoss="57.85" rerouteNo="0" devices="tripinfo_f_1_25.3" vType="DEFAULT_VEHTYPE" speedFactor="1.00" vaporized=""/>
    <tripinfo id="f_1_24.1" depart="17.00" departLane="E5F5_0" departPos="5.10" departSpeed="0.00" departDelay="0.00" arrival="214.00" arrivalLane="H5I5_0" arrivalPos="491.30" arrivalSpeed="13.28" duration="197.00" routeLength="1993.50" waitingTime="38.00" waitingCount="1" stopTime="0.00" timeLoss="53.21" rerouteNo="0" devices="tripinfo_f_1_24.1" vType="DEFAULT_VEHTYPE" speedFactor="1.00" vaporized=""/>
    <tripinfo id="f_1_8.2" depart="22.00" departLane="E9F9_0" departPos="5.10" departSpeed="0.00" departDelay="0.00" arrival="214.00" arrivalLane="H9I9_0" arrivalPos="491.30" arrivalSpeed="13.29" duration="192.00" routeLength="1993.50" waitingTime="36.00" waitingCount="1" stopTime="0.00" timeLoss="51.88" rerouteNo="0" devices="tripinfo_f_1_8.2" vType="DEFAULT_VEHTYPE" speedFactor="1.03" vaporized=""/>
    <tripinfo id="f_1_3.2" depart="7.00" departLane="F8E8_0" departPos="5.10" departSpeed="0.00" departDelay="4.00" arrival="218.00" arrivalLane="C8B8_0" arrivalPos="491.30" arrivalSpeed="13.10" duration="211.00" routeLength="1993.50" waitingTime="42.00" waitingCount="1" stopTime="0.00" timeLoss="59.32" rerouteNo="0" devices="tripinfo_f_1_3.2" vType="DEFAULT_VEHTYPE" speedFactor="0.95" vaporized=""/>
    <tripinfo id="f_1_15.1" depart="8.00" departLane="H6H7_0" departPos="5.10" departSpeed="0.00" departDelay="0.00" arrival="219.00" arrivalLane="H9H10_0" arrivalPos="491.30" arrivalSpeed="13.99" duration="211.00" routeLength="1993.50" waitingTime="46.00" waitingCount="2" stopTime="0.00" timeLoss="72.56" rerouteNo="0" devices="tripinfo_f_1_15.1" vType="DEFAULT_VEHTYPE" speedFactor="1.04" vaporized=""/>
    <tripinfo id="f_1_29.1" depart="25.00" departLane="G2G3_0" departPos="5.10" departSpeed="0.00" departDelay="0.00" arrival="219.00" arrivalLane="G5G6_0" arrivalPos="492.80" arrivalSpeed="14.04" duration="194.00" routeLength="1994.90" waitingTime="41.00" waitingCount="1" stopTime="0.00" timeLoss="55.09" rerouteNo="0" devices="tripinfo_f_1_29.1" vType="DEFAULT_VEHTYPE" speedFactor="1.04" vaporized=""/>
    <tripinfo id="f_1_7.2" depart="6.00" departLane="D6D7_0" departPos="5.10" departSpeed="0.00" departDelay="4.00" arrival="220.00" arrivalLane="D9D10_0" arrivalPos="491.30" arrivalSpeed="13.15" duration="214.00" routeLength="1993.50" waitingTime="50.00" waitingCount="2" stopTime="0.00" timeLoss="72.38" rerouteNo="0" devices="tripinfo_f_1_7.2" vType="DEFAULT_VEHTYPE" speedFactor="1.02" vaporized=""/>
    <tripinfo id="f_1_23.1" depart="5.00" departLane="D2D3_0" departPos="5.10" departSpeed="0.00" departDelay="0.00" arrival="220.00" arrivalLane="D5D6_0" arrivalPos="492.80" arrivalSpeed="13.29" duration="215.00" routeLength="1994.90" waitingTime="53.00" waitingCount="2" stopTime="0.00" timeLoss="76.51" rerouteNo="0" devices="tripinfo_f_1_23.1" vType="DEFAULT_VEHTYPE" speedFactor="1.04" vaporized=""/>
    <tripinfo id="f_1_4.1" depart="5.00" departLane="C11C10_0" departPos="5.10" departSpeed="0.00" departDelay="1.00" arrival="221.00" arrivalLane="C8C7_0" arrivalPos="492.80" arrivalSpeed="13.43" duration="216.00" routeLength="1994.90" waitingTime="48.00" waitingCount="2" stopTime="0.00" timeLoss="70.88" rerouteNo="0" devices="tripinfo_f_1_4.1" vType="DEFAULT_VEHTYPE" speedFactor="0.99" vaporized=""/>
    <tripinfo id="f_1_15.2" depart="11.00" departLane="H6H7_0" departPos="5.10" departSpeed="0.00" departDelay="2.00" arrival="221.00" arrivalLane="H9H10_0" arrivalPos="491.30" arrivalSpeed="13.38" duration="210.00" routeLength="1993.50" waitingTime="46.00" waitingCount="2" stopTime="0.00" timeLoss="73.48" rerouteNo="0" devices="tripinfo_f_1_15.2" vType="DEFAULT_VEHTYPE" speedFactor="1.06" vaporized=""/>
    <tripinfo id="f_1_22.1" depart="10.00" departLane="D7D6_0" departPos="5.10" departSpeed="0.00" departDelay="0.00" arrival="221.00" arrivalLane="D4D3_0" arrivalPos="491.30" arrivalSpeed="12.41" duration="211.00" routeLength="1993.50" waitingTime="44.00" waitingCount="1" stopTime="0.00" timeLoss="63.85" rerouteNo="0" devices="tripinfo_f_1_22.1" vType="DEFAULT_VEHTYPE" speedFactor="0.98" vaporized=""/>
    <tripinfo id="f_1_29.2" depart="31.00" departLane="G2G3_0" departPos="5.10" departSpeed="0.00" departDelay="0.00" arrival="221.00" arrivalLane="G5G6_0" arrivalPos="492.80" arrivalSpeed="14.38" duration="190.00" routeLength="1994.90" waitingTime="40.00" waitingCount="1" stopTime="0.00" timeLoss="60.34" rerouteNo="0" devices="tripinfo_f_1_29.2" vType="DEFAULT_VEHTYPE" speedFactor="1.11" vaporized=""/>
    <tripinfo id="f_1_12.1" depart="4.00" departLane="G11G10_0" departPos="5.10" departSpeed="0.00" departDelay="2.00" arrival="222.00" arrivalLane="G8G7_0" arrivalPos="492.80" arrivalSpeed="13.02" duration="218.00" routeLength="1994.90" waitingTime="48.00" waitingCount="2" stopTime="0.00" timeLoss="70.58" rerouteNo="0" devices="tripinfo_f_1_12.1" vType="DEFAULT_VEHTYPE" speedFactor="0.98" vaporized=""/>
    <tripinfo id="f_1_7.3" depart="9.00" departLane="D6D7_0" departPos="5.10" departSpeed="0.00" departDelay="2.00" arrival="222.00" arrivalLane="D9D10_0" arrivalPos="491.30" arrivalSpeed="14.15" duration="213.00" routeLength="1993.50" waitingTime="48.00" waitingCount="2" stopTime="0.00" timeLoss="71.91" rerouteNo="0" devices="tripinfo_f_1_7.3" vType="DEFAULT_VEHTYPE" speedFactor="1.02" vaporized=""/>
    <tripinfo id="f_1_14.1" depart="10.00" departLane="H11H10_0" departPos="5.10" departSpeed="0.00" departDelay="0.00" arrival="222.00" arrivalLane="H8H7_0" arrivalPos="492.80" arrivalSpeed="13.32" duration="212.00" routeLength="1994.90" waitingTime="44.00" waitingCount="1" stopTime="0.00" timeLoss="62.91" rerouteNo="0" devices="tripinfo_f_1_14.1" vType="DEFAULT_VEHTYPE" speedFactor="0.97" vaporized=""/>
    <tripinfo id="f_1_15.3" depart="14.00" departLane="H6H7_0" departPos="5.10" departSpeed="0.00" departDelay="4.00" arrival="222.00" arrivalLane="H9H10_0" arrivalPos="491.30" arrivalSpeed="15.40" duration="208.00" routeLength="1993.50" waitingTime="42.00" waitingCount="2" stopTime="0.00" timeLoss="82.91" rerouteNo="0" devices="tripinfo_f_1_15.3" vType="DEFAULT_VEHTYPE" speedFactor="1.15" vaporized=""/>
    <tripinfo id="f_1_5.0" depart="0.00" departLane="C6C7_0" departPos="5.10" departSpeed="0.00" departDelay="0.00" arrival="223.00" arrivalLane="C9C10_0" arrivalPos="491.30" arrivalSpeed="12.13" duration="223.00" routeLength="1993.50" waitingTime="49.00" waitingCount="2" stopTime="0.00" timeLoss="69.93" rerouteNo="0" devices="tripinfo_f_1_5.0" vType="DEFAULT_VEHTYPE" speedFactor="0.94" vaporized=""/>
    <tripinfo id="f_1_31.0" depart="0.00" departLane="H2H3_0" departPos="5.10" departSpeed="0.00" departDelay="0.00" arrival="223.00" arrivalLane="H5H6_0" arrivalPos="492.80" arrivalSpeed="12.63" duration="223.00" routeLength="1994.90" waitingTime="46.00" waitingCount="2" stopTime="0.00" timeLoss="69.38" rerouteNo="0" devices="tripinfo_f_1_31.0" vType="DEFAULT_VEHTYPE" speedFactor="0.94" vaporized=""/>
    <tripinfo id="f_1_28.0" depart="1.00" departLane="G7G6_0" departPos="5.10" departSpeed="0.00" departDelay="0.00" arrival="223.00" arrivalLane="G4G3_0" arrivalPos="491.30" arrivalSpeed="11.60" duration="222.00" routeLength="1993.50" waitingTime="48.00" waitingCount="2" stopTime="0.00" timeLoss="67.00" rerouteNo="0" devices="tripinfo_f_1_28.0" vType="DEFAULT_VEHTYPE" speedFactor="0.93" vaporized=""/>
    <tripinfo id="f_1_22.2" depart="13.00" departLane="D7D6_0" departPos="5.10" departSpeed="0.00" departDelay="2.00" arrival="223.00" arrivalLane="D4D3_0" arrivalPos="491.30" arrivalSpeed="13.90" duration="210.00" routeLength="1993.50" waitingTime="42.00" waitingCount="1" stopTime="0.00" timeLoss="78.01" rerouteNo="0" devices="tripinfo_f_1_22.2" vType="DEFAULT_VEHTYPE" speedFactor="1.09" vaporized=""/>
    <tripinfo id="f_1_14.2" depart="13.00" departLane="H11H10_0" departPos="5.10" departSpeed="0.00" departDelay="0.00" arrival="224.00" arrivalLane="H8H7_0" arrivalPos="492.80" arrivalSpeed="12.70" duration="211.00" routeLength="1994.90" waitingTime="44.00" waitingCount="1" stopTime="0.00" timeLoss="61.06" rerouteNo="0" devices="tripinfo_f_1_14.2" vType="DEFAULT_VEHTYPE" speedFactor="0.96" vaporized=""/>
    <tripinfo id="f_1_15.4" depart="17.00" departLane="H6H7_0" departPos="5.10" departSpeed="0.00" departDelay="2.00" arrival="224.00" arrivalLane="H9H10_0" arrivalPos="491.30" arrivalSpeed="14.61" duration="207.00" routeLength="1993.50" waitingTime="41.00" waitingCount="1" stopTime="0.00" timeLoss="76.59" rerouteNo="0" devices="tripinfo_f_1_15.4" vType="DEFAULT_VEHTYPE" speedFactor="1.10" vaporized=""/>
    <tripinfo id="f_1_31.1" depart="3.00" departLane="H2H3_0" departPos="5.10" departSpeed="0.00" departDelay="2.00" arrival="225.00" arrivalLane="H5H6_0" arrivalPos="492.80" arrivalSpeed="11.82" duration="222.00" routeLength="1994.90" waitingTime="45.00" waitingCount="2" stopTime="0.00" timeLoss="68.95" rerouteNo="0" devices="tripinfo_f_1_31.1" vType="DEFAULT_VEHTYPE" speedFactor="0.94" vaporized=""/>
    <tripinfo id="f_1_12.2" depart="7.00" departLane="G11G10_0" departPos="5.10" departSpeed="0.00" departDelay="2.00" arrival="225.00" arrivalLane="G8G7_0" arrivalPos="492.80" arrivalSpeed="12.27" duration="218.00" routeLength="1994.90" waitingTime="43.00" waitingCount="1" stopTime="0.00" timeLoss="67.50" rerouteNo="0" devices="tripinfo_f_1_12.2" vType="DEFAULT_VEHTYPE" speedFactor="0.96" vaporized=""/>
    <tripinfo id="f_1_22.3" depart="16.00" departLane="D7D6_0" departPos="5.10" departSpeed="0.00" departDelay="0.00" arrival="225.00" arrivalLane="D4D3_0" arrivalPos="491.30" arrivalSpeed="13.09" duration="209.00" routeLength="1993.50" waitingTime="40.00" waitingCount="1" stopTime="0.00" timeLoss="69.22" rerouteNo="0" devices="tripinfo_f_1_22.3" vType="DEFAULT_VEHTYPE" speedFactor="1.03" vaporized=""/>
    <tripinfo id="f_1_5.1" depart="19.00" departLane="C6C7_0" departPos="5.10" departSpeed="0.00" departDelay="0.00" arrival="225.00" arrivalLane="C9C10_0" arrivalPos="491.30" arrivalSpeed="13.48" duration="206.00" routeLength="1993.50" waitingTime="42.00" waitingCount="1" stopTime="0.00" timeLoss="67.55" rerouteNo="0" devices="tripinfo_f_1_5.1" vType="DEFAULT_VEHTYPE" speedFactor="1.04" vaporized=""/>
    <tripinfo id="f_1_30.0" depart="0.00" departLane="H7H6_0" departPos="5.10" departSpeed="0.00" departDelay="0.00" arrival="226.00" arrivalLane="H4H3_0" arrivalPos="491.30" arrivalSpeed="12.30" duration="226.00" routeLength="1993.50" waitingTime="43.00" waitingCount="1" stopTime="0.00" timeLoss="63.29" rerouteNo="0" devices="tripinfo_f_1_30.0" vType="DEFAULT_VEHTYPE" speedFactor="0.89" vaporized=""/>
    <tripinfo id="f_1_13.0" depart="2.00" departLane="G6G7_0" departPos="5.10" departSpeed="0.00" departDelay="0.00" arrival="226.00" arrivalLane="G9G10_0" arrivalPos="491.30" arrivalSpeed="12.04" duration="224.00" routeLength="1993.50" waitingTime="43.00" waitingCount="1" stopTime="0.00" timeLoss="62.16" rerouteNo="0" devices="tripinfo_f_1_13.0" vType="DEFAULT_VEHTYPE" speedFactor="0.89" vaporized=""/>