<?xml version="1.0" encoding="UTF-8"?>

<!-- generated on 2024-08-16 22:33:25 by Eclipse SUMO sumo Version 1.12.0
<configuration xmlns:xsi="http://www.w3.org/2001/XMLSchema-instance" xsi:noNamespaceSchemaLocation="http://sumo.dlr.de/xsd/sumoConfiguration.xsd">

    <input>
        <net-file value="quad_static.net.xml"/>
        <route-files value="quad_2.rou.xml"/>
    </input>

    <output>
        <summary-output value="control_summaries//summary_quad_static_2.xml"/>
        <tripinfo-output value="control_summaries//tripinfos_quad_static_2.xml"/>
    </output>

    <processing>
        <time-to-teleport value="-1"/>
    </processing>

    <traci_server>
        <remote-port value="46753"/>
    </traci_server>

</configuration>
-->

<tripinfos xmlns:xsi="http://www.w3.org/2001/XMLSchema-instance" xsi:noNamespaceSchemaLocation="http://sumo.dlr.de/xsd/tripinfo_file.xsd">
    <tripinfo id="f_1_29.0" depart="3.00" departLane="G2G3_0" departPos="5.10" departSpeed="0.00" departDelay="0.00" arrival="158.00" arrivalLane="G5G6_0" arrivalPos="492.80" arrivalSpeed="15.72" duration="155.00" routeLength="1994.90" waitingTime="15.00" waitingCount="1" stopTime="0.00" timeLoss="30.54" rerouteNo="0" devices="tripinfo_f_1_29.0" vType="DEFAULT_VEHTYPE" speedFactor="1.15" vaporized=""/>
    <tripinfo id="f_0_15.0" depart="1.00" departLane="H6H7_0" departPos="5.10" departSpeed="0.00" departDelay="0.00" arrival="162.00" arrivalLane="H9H10_0" arrivalPos="491.30" arrivalSpeed="14.72" duration="161.00" routeLength="1993.50" waitingTime="13.00" waitingCount="1" stopTime="0.00" timeLoss="29.24" rerouteNo="0" devices="tripinfo_f_0_15.0" vType="DEFAULT_VEHTYPE" speedFactor="1.09" vaporized=""/>
    <tripinfo id="f_0_14.0" depart="0.00" departLane="H11H10_0" departPos="5.10" departSpeed="0.00" departDelay="0.00" arrival="163.00" arrivalLane="H8H7_0" arrivalPos="492.80" arrivalSpeed="13.90" duration="163.00" routeLength="1994.90" waitingTime="15.00" waitingCount="1" stopTime="0.00" timeLoss="29.88" rerouteNo="0" devices="tripinfo_f_0_14.0" vType="DEFAULT_VEHTYPE" speedFactor="1.08" vaporized=""/>
    <tripinfo id="f_0_4.0" depart="0.00" departLane="C11C10_0" departPos="5.10" departSpeed="0.00" departDelay="0.00" arrival="164.00" arrivalLane="C8C7_0" arrivalPos="492.80" arrivalSpeed="14.23" duration="164.00" routeLength="1994.90" waitingTime="13.00" waitingCount="1" stopTime="0.00" timeLoss="28.20" rerouteNo="0" devices="tripinfo_f_0_4.0" vType="DEFAULT_VEHTYPE" speedFactor="1.06" vaporized=""/>
    <tripinfo id="f_1_30.0" depart="0.00" departLane="H7H6_0" departPos="5.10" departSpeed="0.00" departDelay="0.00" arrival="165.00" arrivalLane="H4H3_0" arrivalPos="491.30" arrivalSpeed="13.40" duration="165.00" routeLength="1993.50" waitingTime="12.00" waitingCount="1" stopTime="0.00" timeLoss="27.48" rerouteNo="0" devices="tripinfo_f_1_30.0" vType="DEFAULT_VEHTYPE" speedFactor="1.05" vaporized=""/>
    <tripinfo id="f_0_23.0" depart="0.00" departLane="D2D3_0" departPos="5.10" departSpeed="0.00" departDelay="0.00" arrival="166.00" arrivalLane="D5D6_0" arrivalPos="492.80" arrivalSpeed="14.29" duration="166.00" routeLength="1994.90" waitingTime="11.00" waitingCount="1" stopTime="0.00" timeLoss="26.18" rerouteNo="0" devices="tripinfo_f_0_23.0" vType="DEFAULT_VEHTYPE" speedFactor="1.03" vaporized=""/>
    <tripinfo id="f_1_31.0" depart="5.00" departLane="H2H3_0" departPos="5.10" departSpeed="0.00" departDelay="0.00" arrival="166.00" arrivalLane="H5H6_0" arrivalPos="492.80" arrivalSpeed="13.76" duration="161.00" routeLength="1994.90" waitingTime="6.00" waitingCount="1" stopTime="0.00" timeLoss="21.38" rerouteNo="0" devices="tripinfo_f_1_31.0" vType="DEFAULT_VEHTYPE" speedFactor="1.03" vaporized=""/>
    <tripinfo id="f_0_20.0" depart="1.00" departLane="C7C6_0" departPos="5.10" departSpeed="0.00" departDelay="0.00" arrival="167.00" arrivalLane="C4C3_0" arrivalPos="491.30" arrivalSpeed="13.29" duration="166.00" routeLength="1993.50" waitingTime="10.00" waitingCount="1" stopTime="0.00" timeLoss="25.67" rerouteNo="0" devices="tripinfo_f_0_20.0" vType="DEFAULT_VEHTYPE" speedFactor="1.03" vaporized=""/>
    <tripinfo id="f_0_23.1" depart="3.00" departLane="D2D3_0" departPos="5.10" departSpeed="0.00" departDelay="2.00" arrival="168.00" arrivalLane="D5D6_0" arrivalPos="492.80" arrivalSpeed="13.84" duration="165.00" routeLength="1994.90" waitingTime="10.00" waitingCount="1" stopTime="0.00" timeLoss="27.27" rerouteNo="0" devices="tripinfo_f_0_23.1" vType="DEFAULT_VEHTYPE" speedFactor="1.05" vaporized=""/>
    <tripinfo id="f_0_20.1" depart="4.00" departLane="C7C6_0" departPos="5.10" departSpeed="0.00" departDelay="2.00" arrival="169.00" arrivalLane="C4C3_0" arrivalPos="491.30" arrivalSpeed="15.48" duration="165.00" routeLength="1993.50" waitingTime="8.00" waitingCount="1" stopTime="0.00" timeLoss="40.32" rerouteNo="0" devices="tripinfo_f_0_20.1" vType="DEFAULT_VEHTYPE" speedFactor="1.16" vaporized=""/>
    <tripinfo id="f_1_29.1" depart="6.00" departLane="G2G3_0" departPos="5.10" departSpeed="0.00" departDelay="2.00" arrival="169.00" arrivalLane="G5G6_0" arrivalPos="492.80" arrivalSpeed="13.57" duration="163.00" routeLength="1994.90" waitingTime="5.00" waitingCount="1" stopTime="0.00" timeLoss="21.71" rerouteNo="0" devices="tripinfo_f_1_29.1" vType="DEFAULT_VEHTYPE" speedFactor="1.02" vaporized=""/>
    <tripinfo id="f_0_18.0" depart="4.00" departLane="A4B4_0" departPos="5.10" departSpeed="0.00" departDelay="0.00" arrival="170.00" arrivalLane="D4E4_0" arrivalPos="492.80" arrivalSpeed="16.01" duration="166.00" routeLength="1994.90" waitingTime="27.00" waitingCount="1" stopTime="0.00" timeLoss="43.31" rerouteNo="0" devices="tripinfo_f_0_18.0" vType="DEFAULT_VEHTYPE" speedFactor="1.17" vaporized=""/>
    <tripinfo id="f_1_27.0" depart="1.00" departLane="J4I4_0" departPos="5.10" departSpeed="0.00" departDelay="0.00" arrival="171.00" arrivalLane="G4F4_0" arrivalPos="492.80" arrivalSpeed="15.11" duration="170.00" routeLength="1994.90" waitingTime="28.00" waitingCount="1" stopTime="0.00" timeLoss="42.07" rerouteNo="0" devices="tripinfo_f_1_27.0" vType="DEFAULT_VEHTYPE" speedFactor="1.12" vaporized=""/>
    <tripinfo id="f_0_15.1" depart="7.00" departLane="H6H7_0" departPos="5.10" departSpeed="0.00" departDelay="0.00" arrival="171.00" arrivalLane="H9H10_0" arrivalPos="491.30" arrivalSpeed="13.15" duration="164.00" routeLength="1993.50" waitingTime="3.00" waitingCount="1" stopTime="0.00" timeLoss="19.36" rerouteNo="0" devices="tripinfo_f_0_15.1" vType="DEFAULT_VEHTYPE" speedFactor="1.00" vaporized=""/>
    <tripinfo id="f_1_26.0" depart="16.00" departLane="E4F4_0" departPos="5.10" departSpeed="0.00" departDelay="0.00" arrival="171.00" arrivalLane="H4I4_0" arrivalPos="491.30" arrivalSpeed="16.12" duration="155.00" routeLength="1993.50" waitingTime="17.00" waitingCount="1" stopTime="0.00" timeLoss="32.17" rerouteNo="0" devices="tripinfo_f_1_26.0" vType="DEFAULT_VEHTYPE" speedFactor="1.18" vaporized=""/>
    <tripinfo id="f_0_11.0" depart="0.00" departLane="J8I8_0" departPos="5.10" departSpeed="0.00" departDelay="0.00" arrival="175.00" arrivalLane="G8F8_0" arrivalPos="492.80" arrivalSpeed="14.02" duration="175.00" routeLength="1994.90" waitingTime="17.00" waitingCount="1" stopTime="0.00" timeLoss="32.55" rerouteNo="0" devices="tripinfo_f_0_11.0" vType="DEFAULT_VEHTYPE" speedFactor="1.01" vaporized=""/>
    <tripinfo id="f_1_27.1" depart="4.00" departLane="J4I4_0" departPos="5.10" departSpeed="0.00" departDelay="2.00" arrival="177.00" arrivalLane="G4F4_0" arrivalPos="492.80" arrivalSpeed="13.88" duration="173.00" routeLength="1994.90" waitingTime="16.00" waitingCount="1" stopTime="0.00" timeLoss="30.27" rerouteNo="0" devices="tripinfo_f_1_27.1" vType="DEFAULT_VEHTYPE" speedFactor="1.01" vaporized=""/>
    <tripinfo id="f_0_8.0" depart="3.00" departLane="E9F9_0" departPos="5.10" departSpeed="0.00" departDelay="0.00" arrival="177.00" arrivalLane="H9I9_0" arrivalPos="491.30" arrivalSpeed="12.89" duration="174.00" routeLength="1993.50" waitingTime="6.00" waitingCount="1" stopTime="0.00" timeLoss="22.13" rerouteNo="0" devices="tripinfo_f_0_8.0" vType="DEFAULT_VEHTYPE" speedFactor="0.95" vaporized=""/>
    <tripinfo id="f_0_1.0" depart="5.00" departLane="F9E9_0" departPos="5.10" departSpeed="0.00" departDelay="0.00" arrival="177.00" arrivalLane="C9B9_0" arrivalPos="491.30" arrivalSpeed="12.72" duration="172.00" routeLength="1993.50" waitingTime="7.00" waitingCount="1" stopTime="0.00" timeLoss="24.10" rerouteNo="0" devices="tripinfo_f_0_1.0" vType="DEFAULT_VEHTYPE" speedFactor="0.97" vaporized=""/>
    <tripinfo id="f_0_9.0" depart="0.00" departLane="J9I9_0" departPos="5.10" departSpeed="0.00" departDelay="0.00" arrival="178.00" arrivalLane="G9F9_0" arrivalPos="492.80" arrivalSpeed="12.24" duration="178.00" routeLength="1994.90" waitingTime="10.00" waitingCount="1" stopTime="0.00" timeLoss="24.02" rerouteNo="0" devices="tripinfo_f_0_9.0" vType="DEFAULT_VEHTYPE" speedFactor="0.94" vaporized=""/>
    <tripinfo id="f_0_10.0" depart="1.00" departLane="E8F8_0" departPos="5.10" departSpeed="0.00" departDelay="0.00" arrival="178.00" arrivalLane="H8I8_0" arrivalPos="491.30" arrivalSpeed="12.75" duration="177.00" routeLength="1993.50" waitingTime="7.00" waitingCount="1" stopTime="0.00" timeLoss="23.58" rerouteNo="0" devices="tripinfo_f_0_10.0" vType="DEFAULT_VEHTYPE" speedFactor="0.94" vaporized=""/>
    <tripinfo id="f_0_16.0" depart="2.00" departLane="A5B5_0" departPos="5.10" departSpeed="0.00" departDelay="0.00" arrival="179.00" arrivalLane="D5E5_0" arrivalPos="492.80" arrivalSpeed="12.01" duration="177.00" routeLength="1994.90" waitingTime="6.00" waitingCount="1" stopTime="0.00" timeLoss="23.10" rerouteNo="0" devices="tripinfo_f_0_16.0" vType="DEFAULT_VEHTYPE" speedFactor="0.94" vaporized=""/>
    <tripinfo id="f_0_1.1" depart="8.00" departLane="F9E9_0" departPos="5.10" departSpeed="0.00" departDelay="0.00" arrival="179.00" arrivalLane="C9B9_0" arrivalPos="491.30" arrivalSpeed="13.74" duration="171.00" routeLength="1993.50" waitingTime="6.00" waitingCount="1" stopTime="0.00" timeLoss="29.09" rerouteNo="0" devices="tripinfo_f_0_1.1" vType="DEFAULT_VEHTYPE" speedFactor="1.02" vaporized=""/>
    <tripinfo id="f_1_27.2" depart="7.00" departLane="J4I4_0" departPos="5.10" departSpeed="0.00" departDelay="3.00" arrival="180.00" arrivalLane="G4F4_0" arrivalPos="492.80" arrivalSpeed="12.76" duration="173.00" routeLength="1994.90" waitingTime="11.00" waitingCount="1" stopTime="0.00" timeLoss="27.75" rerouteNo="0" devices="tripinfo_f_1_27.2" vType="DEFAULT_VEHTYPE" speedFactor="0.99" vaporized=""/>
    <tripinfo id="f_0_10.1" depart="5.00" departLane="E8F8_0" departPos="5.10" departSpeed="0.00" departDelay="0.00" arrival="180.00" arrivalLane="H8I8_0" arrivalPos="491.30" arrivalSpeed="16.29" duration="175.00" routeLength="1993.50" waitingTime="6.00" waitingCount="1" stopTime="0.00" timeLoss="52.51" rerouteNo="0" devices="tripinfo_f_0_10.1" vType="DEFAULT_VEHTYPE" speedFactor="1.18" vaporized=""/>
    <tripinfo id="f_0_16.1" depart="5.00" departLane="A5B5_0" departPos="5.10" departSpeed="0.00" departDelay="0.00" arrival="181.00" arrivalLane="D5E5_0" arrivalPos="492.80" arrivalSpeed="14.01" duration="176.00" routeLength="1994.90" waitingTime="5.00" waitingCount="1" stopTime="0.00" timeLoss="44.81" rerouteNo="0" devices="tripinfo_f_0_16.1" vType="DEFAULT_VEHTYPE" speedFactor="1.10" vaporized=""/>
    <tripinfo id="f_0_17.0" depart="20.00" departLane="F5E5_0" departPos="5.10" departSpeed="0.00" departDelay="0.00" arrival="203.00" arrivalLane="C5B5_0" arrivalPos="491.30" arrivalSpeed="16.13" duration="183.00" routeLength="1993.50" waitingTime="43.00" waitingCount="1" stopTime="0.00" timeLoss="58.81" rerouteNo="0" devices="tripinfo_f_0_17.0" vType="DEFAULT_VEHTYPE" speedFactor="1.16" vaporized=""/>
    <tripinfo id="f_0_3.0" depart="53.00" departLane="F8E8_0" departPos="5.10" departSpeed="0.00" departDelay="0.00" arrival="206.00" arrivalLane="C8B8_0" arrivalPos="491.30" arrivalSpeed="15.23" duration="153.00" routeLength="1993.50" waitingTime="9.00" waitingCount="1" stopTime="0.00" timeLoss="23.54" rerouteNo="0" devices="tripinfo_f_0_3.0" vType="DEFAULT_VEHTYPE" speedFactor="1.11" vaporized=""/>
    <tripinfo id="f_0_3.1" depart="56.00" departLane="F8E8_0" departPos="5.10" departSpeed="0.00" departDelay="1.00" arrival="209.00" arrivalLane="C8B8_0" arrivalPos="491.30" arrivalSpeed="14.80" duration="153.00" routeLength="1993.50" waitingTime="4.00" waitingCount="1" stopTime="0.00" timeLoss="22.32" rerouteNo="0" devices="tripinfo_f_0_3.1" vType="DEFAULT_VEHTYPE" speedFactor="1.10" vaporized=""/>
    <tripinfo id="f_0_16.2" depart="8.00" departLane="A5B5_0" departPos="5.10" departSpeed="0.00" departDelay="2.00" arrival="211.00" arrivalLane="D5E5_0" arrivalPos="492.80" arrivalSpeed="14.03" duration="203.00" routeLength="1994.90" waitingTime="44.00" waitingCount="1" stopTime="0.00" timeLoss="63.92" rerouteNo="0" devices="tripinfo_f_0_16.2" vType="DEFAULT_VEHTYPE" speedFactor="1.04" vaporized=""/>
    <tripinfo id="f_0_1.2" depart="11.00" departLane="F9E9_0" departPos="5.10" departSpeed="0.00" departDelay="1.00" arrival="211.00" arrivalLane="C9B9_0" arrivalPos="491.30" arrivalSpeed="14.12" duration="200.00" routeLength="1993.50" waitingTime="43.00" waitingCount="1" stopTime="0.00" timeLoss="59.52" rerouteNo="0" devices="tripinfo_f_0_1.2" vType="DEFAULT_VEHTYPE" speedFactor="1.02" vaporized=""/>
    <tripinfo id="f_0_16.3" depart="16.00" departLane="A5B5_0" departPos="5.10" departSpeed="0.00" departDelay="0.00" arrival="212.00" arrivalLane="D5E5_0" arrivalPos="492.80" arrivalSpeed="15.03" duration="196.00" routeLength="1994.90" waitingTime="43.00" waitingCount="1" stopTime="0.00" timeLoss="64.99" rerouteNo="0" devices="tripinfo_f_0_16.3" vType="DEFAULT_VEHTYPE" speedFactor="1.10" vaporized=""/>
    <tripinfo id="f_0_19.0" depart="31.00" departLane="F4E4_0" departPos="5.10" departSpeed="0.00" departDelay="0.00" arrival="212.00" arrivalLane="C4B4_0" arrivalPos="491.30" arrivalSpeed="13.77" duration="181.00" routeLength="1993.50" waitingTime="26.00" waitingCount="1" stopTime="0.00" timeLoss="40.10" rerouteNo="0" devices="tripinfo_f_0_19.0" vType="DEFAULT_VEHTYPE" speedFactor="1.02" vaporized=""/>
    <tripinfo id="f_0_11.1" depart="9.00" departLane="J8I8_0" departPos="5.10" departSpeed="0.00" departDelay="0.00" arrival="214.00" arrivalLane="G8F8_0" arrivalPos="492.80" arrivalSpeed="13.51" duration="205.00" routeLength="1994.90" waitingTime="44.00" waitingCount="1" stopTime="0.00" timeLoss="59.33" rerouteNo="0" devices="tripinfo_f_0_11.1" vType="DEFAULT_VEHTYPE" speedFactor="0.99" vaporized=""/>
    <tripinfo id="f_2_24.0" depart="33.00" departLane="E5F5_0" departPos="5.10" departSpeed="0.00" departDelay="0.00" arrival="214.00" arrivalLane="H5I5_0" arrivalPos="491.30" arrivalSpeed="12.73" duration="181.00" routeLength="1993.50" waitingTime="22.00" waitingCount="1" stopTime="0.00" timeLoss="36.42" rerouteNo="0" devices="tripinfo_f_2_24.0" vType="DEFAULT_VEHTYPE" speedFactor="1.00" vaporized=""/>
    <tripinfo id="f_0_11.2" depart="12.00" departLane="J8I8_0" departPos="5.10" departSpeed="0.00" departDelay="2.00" arrival="216.00" arrivalLane="G8F8_0" arrivalPos="492.80" arrivalSpeed="13.54" duration="204.00" routeLength="1994.90" waitingTime="42.00" waitingCount="1" stopTime="0.00" timeLoss="67.61" rerouteNo="0" devices="tripinfo_f_0_11.2" vType="DEFAULT_VEHTYPE" speedFactor="1.06" vaporized=""/>
    <tripinfo id="f_0_8.1" depart="6.00" departLane="E9F9_0" departPos="5.10" departSpeed="0.00" departDelay="0.00" arrival="217.00" arrivalLane="H9I9_0" arrivalPos="491.30" arrivalSpeed="12.56" duration="211.00" routeLength="1993.50" waitingTime="45.00" waitingCount="1" stopTime="0.00" timeLoss="60.56" rerouteNo="0" devices="tripinfo_f_0_8.1" vType="DEFAULT_VEHTYPE" speedFactor="0.96" vaporized=""/>
    <tripinfo id="f_0_22.0" depart="32.00" departLane="D7D6_0" departPos="5.10" departSpeed="0.00" departDelay="0.00" arrival="217.00" arrivalLane="D4D3_0" arrivalPos="491.30" arrivalSpeed="14.31" duration="185.00" routeLength="1993.50" waitingTime="41.00" waitingCount="1" stopTime="0.00" timeLoss="54.48" rerouteNo="0" devices="tripinfo_f_0_22.0" vType="DEFAULT_VEHTYPE" speedFactor="1.10" vaporized=""/>
    <tripinfo id="f_0_6.0" depart="50.00" departLane="D11D10_0" departPos="5.10" departSpeed="0.00" departDelay="0.00" arrival="217.00" arrivalLane="D8D7_0" arrivalPos="492.80" arrivalSpeed="14.38" duration="167.00" routeLength="1994.90" waitingTime="22.00" waitingCount="1" stopTime="0.00" timeLoss="36.99" rerouteNo="0" devices="tripinfo_f_0_6.0" vType="DEFAULT_VEHTYPE" speedFactor="1.11" vaporized=""/>
    <tripinfo id="f_0_23.2" depart="6.00" departLane="D2D3_0" departPos="5.10" departSpeed="0.00" departDelay="4.00" arrival="220.00" arrivalLane="D5D6_0" arrivalPos="492.80" arrivalSpeed="14.05" duration="214.00" routeLength="1994.90" waitingTime="52.00" waitingCount="2" stopTime="0.00" timeLoss="72.52" rerouteNo="0" devices="tripinfo_f_0_23.2" vType="DEFAULT_VEHTYPE" speedFactor="1.02" vaporized=""/>
    <tripinfo id="f_0_22.1" depart="36.00" departLane="D7D6_0" departPos="5.10" departSpeed="0.00" departDelay="0.00" arrival="220.00" arrivalLane="D4D3_0" arrivalPos="491.30" arrivalSpeed="14.94" duration="184.00" routeLength="1993.50" waitingTime="37.00" waitingCount="1" stopTime="0.00" timeLoss="52.45" rerouteNo="0" devices="tripinfo_f_0_22.1" vType="DEFAULT_VEHTYPE" speedFactor="1.10" vaporized=""/>
    <tripinfo id="f_0_6.1" depart="54.00" departLane="D11D10_0" departPos="5.10" departSpeed="0.00" departDelay="0.00" arrival="220.00" arrivalLane="D8D7_0" arrivalPos="492.80" arrivalSpeed="14.39" duration="166.00" routeLength="1994.90" waitingTime="17.00" waitingCount="1" stopTime="0.00" timeLoss="32.49" rerouteNo="0" devices="tripinfo_f_0_6.1" vType="DEFAULT_VEHTYPE" speedFactor="1.08" vaporized=""/>
    <tripinfo id="f_1_31.1" depart="10.00" departLane="H2H3_0" departPos="5.10" departSpeed="0.00" departDelay="0.00" arrival="221.00" arrivalLane="H5H6_0" arrivalPos="492.80" arrivalSpeed="13.13" duration="211.00" routeLength="1994.90" waitingTime="43.00" waitingCount="1" stopTime="0.00" timeLoss="64.50" rerouteNo="0" devices="tripinfo_f_1_31.1" vType="DEFAULT_VEHTYPE" speedFactor="0.98" vaporized=""/>
    <tripinfo id="f_0_21.0" depart="32.00" departLane="C2C3_0" departPos="5.10" departSpeed="0.00" departDelay="0.00" arrival="221.00" arrivalLane="C5C6_0" arrivalPos="492.80" arrivalSpeed="13.24" duration="189.00" routeLength="1994.90" waitingTime="32.00" waitingCount="1" stopTime="0.00" timeLoss="45.15" rerouteNo="0" devices="tripinfo_f_0_21.0" vType="DEFAULT_VEHTYPE" speedFactor="1.00" vaporized=""/>
    <tripinfo id="f_1_30.1" depart="3.00" departLane="H7H6_0" departPos="5.10" departSpeed="0.00" departDelay="2.00" arrival="223.00" arrivalLane="H4H3_0" arrivalPos="491.30" arrivalSpeed="11.60" duration="220.00" routeLength="1993.50" waitingTime="44.00" waitingCount="2" stopTime="0.00" timeLoss="65.01" rerouteNo="0" devices="tripinfo_f_1_30.1" vType="DEFAULT_VEHTYPE" speedFactor="0.93" vaporized=""/>
    <tripinfo id="f_0_14.1" depart="3.00" departLane="H11H10_0" departPos="5.10" departSpeed="0.00" departDelay="1.00" arrival="223.00" arrivalLane="H8H7_0" arrivalPos="492.80" arrivalSpeed="12.03" duration="220.00" routeLength="1994.90" waitingTime="45.00" waitingCount="2" stopTime="0.00" timeLoss="67.14" rerouteNo="0" devices="tripinfo_f_0_14.1" vType="DEFAULT_VEHTYPE" speedFactor="0.94" vaporized=""/>
    <tripinfo id="f_1_31.2" depart="13.00" departLane="H2H3_0" departPos="5.10" departSpeed="0.00" departDelay="1.00" arrival="223.00" arrivalLane="H5H6_0" arrivalPos="492.80" arrivalSpeed="13.91" duration="210.00" routeLength="1994.90" waitingTime="43.00" waitingCount="1" stopTime="0.00" timeLoss="66.07" rerouteNo="0" devices="tripinfo_f_1_31.2" vType="DEFAULT_VEHTYPE" speedFactor="1.00" vaporized=""/>
    <tripinfo id="f_0_5.0" depart="3.00" departLane="C6C7_0" departPos="5.10" departSpeed="0.00" departDelay="0.00" arrival="224.00" arrivalLane="C9C10_0" arrivalPos="491.30" arrivalSpeed="12.29" duration="221.00" routeLength="1993.50" waitingTime="44.00" waitingCount="1" stopTime="0.00" timeLoss="63.87" rerouteNo="0" devices="tripinfo_f_0_5.0" vType="DEFAULT_VEHTYPE" speedFactor="0.92" vaporized=""/>
    <tripinfo id="f_0_15.2" depart="10.00" departLane="H6H7_0" departPos="5.10" departSpeed="0.00" departDelay="2.00" arrival="224.00" arrivalLane="H9H10_0" arrivalPos="491.30" arrivalSpeed="12.17" duration="214.00" routeLength="1993.50" waitingTime="39.00" waitingCount="1" stopTime="0.00" timeLoss="54.33" rerouteNo="0" devices="tripinfo_f_0_15.2" vType="DEFAULT_VEHTYPE" speedFactor="0.90" vaporized=""/>
    <tripinfo id="f_0_20.2" depart="9.00" departLane="C7C6_0" departPos="5.10" departSpeed="0.00" departDelay="0.00" arrival="224.00" arrivalLane="C4C3_0" arrivalPos="491.30" arrivalSpeed="12.35" duration="215.00" routeLength="1993.50" waitingTime="38.00" waitingCount="1" stopTime="0.00" timeLoss="56.58" rerouteNo="0" devices="tripinfo_f_0_20.2" vType="DEFAULT_VEHTYPE" speedFactor="0.91" vaporized=""/>
    <tripinfo id="f_0_12.0" depart="26.00" departLane="G11G10_0" departPos="5.10" departSpeed="0.00" departDelay="0.00" arrival="224.00" arrivalLane="G8G7_0" arrivalPos="492.80" arrivalSpeed="12.20" duration="198.00" routeLength="1994.90" waitingTime="24.00" waitingCount="1" stopTime="0.00" timeLoss="41.30" rerouteNo="0" devices="tripinfo_f_0_12.0" vType="DEFAULT_VEHTYPE" speedFactor="0.92" vaporized=""/>
    <tripinfo id="f_0_5.1" depart="7.00" departLane="C6C7_0" departPos="5.10" departSpeed="0.00" departDelay="0.00" arrival="225.00" arrivalLane="C9C10_0" arrivalPos="491.30" arrivalSpeed="14.39" duration="218.00" routeLength="1993.50" waitingTime="43.00" waitingCount="1" stopTime="0.00" timeLoss="80.37" rerouteNo="0" devices="tripinfo_f_0_5.1" vType="DEFAULT_VEHTYPE" speedFactor="1.04" vaporized=""/>
    <tripinfo id="f_0_14.2" depart="10.00" departLane="H11H10_0" departPos="5.10" departSpeed="0.00" departDelay="0.00" arrival="225.00" arrivalLane="H8H7_0" arrivalPos="492.80" arrivalSpeed="13.14" duration="215.00" routeLength="1994.90" waitingTime="42.00" waitingCount="1" stopTime="0.00" timeLoss="64.08" rerouteNo="0" devices="tripinfo_f_0_14.2" vType="DEFAULT_VEHTYPE" speedFactor="0.96" vaporized=""/>
    <tripinfo id="f_0_13.0" depart="1.00" departLane="G6G7_0" departPos="5.10" departSpeed="0.00" departDelay="0.00" arrival="226.00" arrivalLane="G9G10_0" arrivalPos="491.30" arrivalSpeed="10.85" duration="225.00" routeLength="1993.50" waitingTime="40.00" waitingCount="1" stopTime="0.00" timeLoss="57.42" rerouteNo="0" devices="tripinfo_f_0_13.0" vType="DEFAULT_VEHTYPE" speedFactor="0.86" vaporized=""/>
    <tripinfo id="f_0_4.1" depart="3.00" departLane="C11C10_0" departPos="5.10" departSpeed="0.00" departDelay="0.00" arrival="226.00" arrivalLane="C8C7_0" arrivalPos="492.80" arrivalSpeed="11.87" duration="223.00" routeLength="1994.90" waitingTime="40.00" waitingCount="1" stopTime="0.00" timeLoss="58.11" rerouteNo="0" devices="tripinfo_f_0_4.1" vType="DEFAULT_VEHTYPE" speedFactor="0.87" vaporized=""/>
    <tripinfo id="f_0_15.3" depart="13.00" departLane="H6H7_0" departPos="5.10" departSpeed="0.00" departDelay="4.00" arrival="226.00" arrivalLane="H9H10_0" arrivalPos="491.30" arrivalSpeed="12.35" duration="213.00" routeLength="1993.50" waitingTime="38.00" waitingCount="1" stopTime="0.00" timeLoss="59.61" rerouteNo="0" devices="tripinfo_f_0_15.3" vType="DEFAULT_VEHTYPE" speedFactor="0.94" vaporized=""/>
    <tripinfo id="f_0_20.3" depart="15.00" departLane="C7C6_0" departPos="5.10" departSpeed="0.00" departDelay="0.00" arrival="226.00" arrivalLane="C4C3_0" arrivalPos="491.30" arrivalSpeed="12.37" duration="211.00" routeLength="1993.50" waitingTime="38.00" waitingCount="1" stopTime="0.00" timeLoss="61.12" rerouteNo="0" devices="tripinfo_f_0_20.3" vType="DEFAULT_VEHTYPE" speedFactor="0.96" vaporized=""/>
    <tripinfo id="f_0_12.1" depart="29.00" departLane="G11G10_0" departPos="5.10" departSpeed="0.00" departDelay="0.00" arrival="226.00" arrivalLane="G8G7_0" arrivalPos="492.80" arrivalSpeed="11.72" duration="197.00" routeLength="1994.90" waitingTime="24.00" waitingCount="1" stopTime="0.00" timeLoss="41.66" rerouteNo="0" devices="tripinfo_f_0_12.1" vType="DEFAULT_VEHTYPE" speedFactor="0.93" vaporized=""/>
    <tripinfo id="f_0_21.1" depart="37.00" departLane="C2C3_0" departPos="5.10" departSpeed="0.00" departDelay="0.00" arrival="226.00" arrivalLane="C5C6_0" arrivalPos="492.80" arrivalSpeed="12.44" duration="189.00" routeLength="1994.90" waitingTime="16.00" waitingCount="1" stopTime="0.00" timeLoss="34.38" rerouteNo="0" devices="tripinfo_f_0_21.1" vType="DEFAULT_VEHTYPE" speedFactor="0.93" vaporized=""/>
    <tripinfo id="f_1_30.2" depart="6.00" departLane="H7H6_0" departPos="5.10" departSpeed="0.00" departDelay="4.00" arrival="227.00" arrivalLane="H4H3_0" arrivalPos="491.30" arrivalSpeed="12.34" duration="221.00" routeLength="1993.50" waitingTime="41.00" waitingCount="1" stopTime="0.00" timeLoss="59.64" rerouteNo="0" devices="tripinfo_f_1_30.2" vType="DEFAULT_VEHTYPE" speedFactor="0.89" vaporized=""/>
    <tripinfo id="f_1_29.2" depart="10.00" departLane="G2G3_0" departPos="5.10" departSpeed="0.00" departDelay="3.00" arrival="227.00" arrivalLane="G5G6_0" arrivalPos="492.80" arrivalSpeed="11.85" duration="217.00" routeLength="1994.90" waitingTime="31.00" waitingCount="1" stopTime="0.00" timeLoss="48.94" rerouteNo="0" devices="tripinfo_f_1_29.2" vType="DEFAULT_VEHTYPE" speedFactor="0.85" vaporized=""/>
    <tripinfo id="f_0_5.2" depart="10.00" departLane="C6C7_0" departPos="5.10" departSpeed="0.00" departDelay="1.00" arrival="227.00" arrivalLane="C9C10_0" arrivalPos="491.30" arrivalSpeed="15.03" duration="217.00" routeLength="1993.50" waitingTime="44.00" waitingCount="1" stopTime="0.00" timeLoss="88.39" rerouteNo="0" devices="tripinfo_f_0_5.2" vType="DEFAULT_VEHTYPE" speedFactor="1.12" vaporized=""/>
    <tripinfo id="f_0_14.3" depart="13.00" departLane="H11H10_0" departPos="5.10" departSpeed="0.00" departDelay="2.00" arrival="227.00" arrivalLane="H8H7_0" arrivalPos="492.80" arrivalSpeed="12.98" duration="214.00" routeLength="1994.90" waitingTime="41.00" waitingCount="1" stopTime="0.00" timeLoss="69.30" rerouteNo="0" devices="tripinfo_f_0_14.3" vType="DEFAULT_VEHTYPE" speedFactor="1.00" vaporized=""/>
    <tripinfo id="f_0_13.1" depart="4.00" departLane="G6G7_0" departPos="5.10" departSpeed="0.00" departDelay="1.00" arrival="228.00" arrivalLane="G9G10_0" arrivalPos="491.30" arrivalSpeed="11.79" duration="224.00" routeLength="1993.50" waitingTime="40.00" waitingCount="1" stopTime="0.00" timeLoss="69.54" rerouteNo="0" devices="tripinfo_f_0_13.1" vType="DEFAULT_VEHTYPE" speedFactor="0.93" vaporized=""/>
    <tripinfo id="f_0_23.3" depart="9.00" departLane="D2D3_0" departPos="5.10" departSpeed="0.00" departDelay="2.00" arrival="228.00" arrivalLane="D5D6_0" arrivalPos="492.80" arrivalSpeed="11.54" duration="219.00" routeLength="1994.90" waitingTime="37.00" waitingCount="1" stopTime="0.00" timeLoss="54.95" rerouteNo="0" devices="tripinfo_f_0_23.3" vType="DEFAULT_VEHTYPE" speedFactor="0.88" vaporized=""/>
    <tripinfo id="f_0_4.2" depart="8.00" departLane="C11C10_0" departPos="5.10" departSpeed="0.00" departDelay="0.00" arrival="228.00" arrivalLane="C8C7_0" arrivalPos="492.80" arrivalSpeed="14.63" duration="220.00" routeLength="1994.90" waitingTime="39.00" waitingCount="1" stopTime="0.00" timeLoss="88.28" rerouteNo="0" devices="tripinfo_f_0_4.2" vType="DEFAULT_VEHTYPE" speedFactor="1.10" vaporized=""/>
    <tripinfo id="f_1_31.3" depart="16.00" departLane="H2H3_0" departPos="5.10" departSpeed="0.00" departDelay="3.00" arrival="228.00" arrivalLane="H5H6_0" arrivalPos="492.80" arrivalSpeed="12.32" duration="212.00" routeLength="1994.90" waitingTime="36.00" waitingCount="1" stopTime="0.00" timeLoss="53.49" rerouteNo="0" devices="tripinfo_f_1_31.3" vType="DEFAULT_VEHTYPE" speedFactor="0.91" vaporized=""/>
    <tripinfo id="f_0_14.4" depart="16.00" departLane="H11H10_0" departPos="5.10" departSpeed="0.00" departDelay="1.00" arrival="228.00" arrivalLane="H8H7_0" arrivalPos="492.80" arrivalSpeed="13.45" duration="212.00" routeLength="1994.90" waitingTime="41.00" waitingCount="1" stopTime="0.00" timeLoss="72.99" rerouteNo="0" devices="tripinfo_f_0_14.4" vType="DEFAULT_VEHTYPE" speedFactor="1.03" vaporized=""/>
    <tripinfo id="f_0_20.4" depart="18.00" departLane="C7C6_0" departPos="5.10" departSpeed="0.00" departDelay="0.00" arrival="228.00" arrivalLane="C4C3_0" arrivalPos="491.30" arrivalSpeed="13.78" duration="210.00" routeLength="1993.50" waitingTime="37.00" waitingCount="1" stopTime="0.00" timeLoss="70.26" rerouteNo="0" devices="tripinfo_f_0_20.4" vType="DEFAULT_VEHTYPE" speedFactor="1.03" vaporized=""/>
    <tripinfo id="f_0_12.2" depart="32.00" departLane="G11G10_0" departPos="5.10" departSpeed="0.00" departDelay="0.00" arrival="228.00" arrivalLane="G8G7_0" arrivalPos="492.80" arrivalSpeed="12.93" duration="196.00" routeLength="1994.90" waitingTime="23.00" waitingCount="1" stopTime="0.00" timeLoss="49.19" rerouteNo="0" devices="tripinfo_f_0_12.2" vType="DEFAULT_VEHTYPE" speedFactor="0.98" vaporized=""/>
    <tripinfo id="f_0_21.2" depart="40.00" departLane="C2C3_0" departPos="5.10" departSpeed="0.00" departDelay="1.00" arrival="228.00" arrivalLane="C5C6_0" arrivalPos="492.80" arrivalSpeed="12.56" duration="188.00" routeLength="1994.90" waitingTime="14.00" waitingCount="1" stopTime="0.00" timeLoss="30.82" rerouteNo="0" devices="tripinfo_f_0_21.2" vType="DEFAULT_VEHTYPE" speedFactor="0.92" vaporized=""/>