<?xml version="1.0" encoding="UTF-8"?>

<!-- generated on 2024-08-16 22:33:25 by Eclipse SUMO sumo Version 1.12.0
<configuration xmlns:xsi="http://www.w3.org/2001/XMLSchema-instance" xsi:noNamespaceSchemaLocation="http://sumo.dlr.de/xsd/sumoConfiguration.xsd">

    <input>
        <net-file value="quad_static.net.xml"/>
        <route-files value="quad_1.rou.xml"/>
    </input>

    <output>
        <summary-output value="control_summaries//summary_quad_static_1.xml"/>
        <tripinfo-output value="control_summaries//tripinfos_quad_static_1.xml"/>
    </output>

    <processing>
        <time-to-teleport value="-1"/>
    </processing>

    <traci_server>
        <remote-port value="44465"/>
    </traci_server>

</configuration>
-->

<tripinfos xmlns:xsi="http://www.w3.org/2001/XMLSchema-instance" xsi:noNamespaceSchemaLocation="http://sumo.dlr.de/xsd/tripinfo_file.xsd">
    <tripinfo id="f_0_13.0" depart="4.00" departLane="G6G7_0" departPos="5.10" departSpeed="0.00" departDelay="0.00" arrival="163.00" arrivalLane="G9G10_0" arrivalPos="491.30" arrivalSpeed="14.43" duration="159.00" routeLength="1993.50" waitingTime="10.00" waitingCount="1" stopTime="0.00" timeLoss="26.72" rerouteNo="0" devices="tripinfo_f_0_13.0" vType="DEFAULT_VEHTYPE" speedFactor="1.09" vaporized=""/>
    <tripinfo id="f_0_12.0" depart="0.00" departLane="G11G10_0" departPos="5.10" departSpeed="0.00" departDelay="0.00" arrival="164.00" arrivalLane="G8G7_0" arrivalPos="492.80" arrivalSpeed="13.99" duration="164.00" routeLength="1994.90" waitingTime="12.00" waitingCount="1" stopTime="0.00" timeLoss="28.10" rerouteNo="0" devices="tripinfo_f_0_12.0" vType="DEFAULT_VEHTYPE" speedFactor="1.06" vaporized=""/>
    <tripinfo id="f_0_12.1" depart="3.00" departLane="G11G10_0" departPos="5.10" departSpeed="0.00" departDelay="2.00" arrival="166.00" arrivalLane="G8G7_0" arrivalPos="492.80" arrivalSpeed="14.13" duration="163.00" routeLength="1994.90" waitingTime="11.00" waitingCount="1" stopTime="0.00" timeLoss="29.60" rerouteNo="0" devices="tripinfo_f_0_12.1" vType="DEFAULT_VEHTYPE" speedFactor="1.08" vaporized=""/>
    <tripinfo id="f_0_12.2" depart="6.00" departLane="G11G10_0" departPos="5.10" departSpeed="0.00" departDelay="1.00" arrival="167.00" arrivalLane="G8G7_0" arrivalPos="492.80" arrivalSpeed="15.04" duration="161.00" routeLength="1994.90" waitingTime="10.00" waitingCount="1" stopTime="0.00" timeLoss="33.01" rerouteNo="0" devices="tripinfo_f_0_12.2" vType="DEFAULT_VEHTYPE" speedFactor="1.12" vaporized=""/>
    <tripinfo id="f_0_16.0" depart="2.00" departLane="A5B5_0" departPos="5.10" departSpeed="0.00" departDelay="0.00" arrival="174.00" arrivalLane="D5E5_0" arrivalPos="492.80" arrivalSpeed="13.45" duration="172.00" routeLength="1994.90" waitingTime="20.00" waitingCount="1" stopTime="0.00" timeLoss="34.32" rerouteNo="0" devices="tripinfo_f_0_16.0" vType="DEFAULT_VEHTYPE" speedFactor="1.05" vaporized=""/>
    <tripinfo id="f_0_27.0" depart="0.00" departLane="J4I4_0" departPos="5.10" departSpeed="0.00" departDelay="0.00" arrival="175.00" arrivalLane="G4F4_0" arrivalPos="492.80" arrivalSpeed="13.02" duration="175.00" routeLength="1994.90" waitingTime="18.00" waitingCount="1" stopTime="0.00" timeLoss="32.78" rerouteNo="0" devices="tripinfo_f_0_27.0" vType="DEFAULT_VEHTYPE" speedFactor="1.01" vaporized=""/>
    <tripinfo id="f_0_27.1" depart="3.00" departLane="J4I4_0" departPos="5.10" departSpeed="0.00" departDelay="2.00" arrival="177.00" arrivalLane="G4F4_0" arrivalPos="492.80" arrivalSpeed="13.05" duration="174.00" routeLength="1994.90" waitingTime="18.00" waitingCount="1" stopTime="0.00" timeLoss="34.36" rerouteNo="0" devices="tripinfo_f_0_27.1" vType="DEFAULT_VEHTYPE" speedFactor="1.03" vaporized=""/>
    <tripinfo id="f_0_18.0" depart="0.00" departLane="A4B4_0" departPos="5.10" departSpeed="0.00" departDelay="0.00" arrival="178.00" arrivalLane="D4E4_0" arrivalPos="492.80" arrivalSpeed="12.62" duration="178.00" routeLength="1994.90" waitingTime="9.00" waitingCount="1" stopTime="0.00" timeLoss="24.57" rerouteNo="0" devices="tripinfo_f_0_18.0" vType="DEFAULT_VEHTYPE" speedFactor="0.94" vaporized=""/>
    <tripinfo id="f_0_25.0" depart="3.00" departLane="J5I5_0" departPos="5.10" departSpeed="0.00" departDelay="0.00" arrival="178.00" arrivalLane="G5F5_0" arrivalPos="492.80" arrivalSpeed="12.89" duration="175.00" routeLength="1994.90" waitingTime="5.00" waitingCount="1" stopTime="0.00" timeLoss="21.59" rerouteNo="0" devices="tripinfo_f_0_25.0" vType="DEFAULT_VEHTYPE" speedFactor="0.94" vaporized=""/>
    <tripinfo id="f_0_27.2" depart="6.00" departLane="J4I4_0" departPos="5.10" departSpeed="0.00" departDelay="2.00" arrival="179.00" arrivalLane="G4F4_0" arrivalPos="492.80" arrivalSpeed="13.38" duration="173.00" routeLength="1994.90" waitingTime="16.00" waitingCount="1" stopTime="0.00" timeLoss="35.22" rerouteNo="0" devices="tripinfo_f_0_27.2" vType="DEFAULT_VEHTYPE" speedFactor="1.05" vaporized=""/>
    <tripinfo id="f_0_27.3" depart="9.00" departLane="J4I4_0" departPos="5.10" departSpeed="0.00" departDelay="2.00" arrival="181.00" arrivalLane="G4F4_0" arrivalPos="492.80" arrivalSpeed="13.91" duration="172.00" routeLength="1994.90" waitingTime="14.00" waitingCount="1" stopTime="0.00" timeLoss="29.27" rerouteNo="0" devices="tripinfo_f_0_27.3" vType="DEFAULT_VEHTYPE" speedFactor="1.01" vaporized=""/>
    <tripinfo id="f_0_27.4" depart="17.00" departLane="J4I4_0" departPos="5.10" departSpeed="0.00" departDelay="0.00" arrival="211.00" arrivalLane="G4F4_0" arrivalPos="492.80" arrivalSpeed="13.38" duration="194.00" routeLength="1994.90" waitingTime="41.00" waitingCount="1" stopTime="0.00" timeLoss="54.69" rerouteNo="0" devices="tripinfo_f_0_27.4" vType="DEFAULT_VEHTYPE" speedFactor="1.04" vaporized=""/>
    <tripinfo id="f_0_25.1" depart="6.00" departLane="J5I5_0" departPos="5.10" departSpeed="0.00" departDelay="2.00" arrival="212.00" arrivalLane="G5F5_0" arrivalPos="492.80" arrivalSpeed="13.81" duration="206.00" routeLength="1994.90" waitingTime="44.00" waitingCount="1" stopTime="0.00" timeLoss="65.60" rerouteNo="0" devices="tripinfo_f_0_25.1" vType="DEFAULT_VEHTYPE" speedFactor="1.03" vaporized=""/>
    <tripinfo id="f_0_27.5" depart="22.00" departLane="J4I4_0" departPos="5.10" departSpeed="0.00" departDelay="0.00" arrival="214.00" arrivalLane="G4F4_0" arrivalPos="492.80" arrivalSpeed="13.27" duration="192.00" routeLength="1994.90" waitingTime="34.00" waitingCount="1" stopTime="0.00" timeLoss="50.28" rerouteNo="0" devices="tripinfo_f_0_27.5" vType="DEFAULT_VEHTYPE" speedFactor="1.02" vaporized=""/>
    <tripinfo id="f_0_3.0" depart="60.00" departLane="F8E8_0" departPos="5.10" departSpeed="0.00" departDelay="0.00" arrival="214.00" arrivalLane="C8B8_0" arrivalPos="491.30" arrivalSpeed="13.16" duration="154.00" routeLength="1993.50" waitingTime="0.00" waitingCount="0" stopTime="0.00" timeLoss="10.52" rerouteNo="0" devices="tripinfo_f_0_3.0" vType="DEFAULT_VEHTYPE" speedFactor="1.00" vaporized=""/>
    <tripinfo id="f_0_13.1" depart="7.00" departLane="G6G7_0" departPos="5.10" departSpeed="0.00" departDelay="2.00" arrival="221.00" arrivalLane="G9G10_0" arrivalPos="491.30" arrivalSpeed="12.72" duration="214.00" routeLength="1993.50" waitingTime="47.00" waitingCount="2" stopTime="0.00" timeLoss="68.48" rerouteNo="0" devices="tripinfo_f_0_13.1" vType="DEFAULT_VEHTYPE" speedFactor="0.99" vaporized=""/>
    <tripinfo id="f_0_12.3" depart="9.00" departLane="G11G10_0" departPos="5.10" departSpeed="0.00" departDelay="2.00" arrival="224.00" arrivalLane="G8G7_0" arrivalPos="492.80" arrivalSpeed="11.99" duration="215.00" routeLength="1994.90" waitingTime="38.00" waitingCount="1" stopTime="0.00" timeLoss="60.75" rerouteNo="0" devices="tripinfo_f_0_12.3" vType="DEFAULT_VEHTYPE" speedFactor="0.94" vaporized=""/>
    <tripinfo id="f_0_13.2" depart="9.00" departLane="G6G7_0" departPos="5.10" departSpeed="0.00" departDelay="1.00" arrival="227.00" arrivalLane="G9G10_0" arrivalPos="491.30" arrivalSpeed="11.72" duration="218.00" routeLength="1993.50" waitingTime="40.00" waitingCount="1" stopTime="0.00" timeLoss="55.97" rerouteNo="0" devices="tripinfo_f_0_13.2" vType="DEFAULT_VEHTYPE" speedFactor="0.89" vaporized=""/>
    <tripinfo id="f_0_12.4" depart="12.00" departLane="G11G10_0" departPos="5.10" departSpeed="0.00" departDelay="3.00" arrival="227.00" arrivalLane="G8G7_0" arrivalPos="492.80" arrivalSpeed="12.04" duration="215.00" routeLength="1994.90" waitingTime="36.00" waitingCount="1" stopTime="0.00" timeLoss="57.52" rerouteNo="0" devices="tripinfo_f_0_12.4" vType="DEFAULT_VEHTYPE" speedFactor="0.92" vaporized=""/>
    <tripinfo id="f_0_12.5" depart="23.00" departLane="G11G10_0" departPos="5.10" departSpeed="0.00" departDelay="0.00" arrival="228.00" arrivalLane="G8G7_0" arrivalPos="492.80" arrivalSpeed="13.15" duration="205.00" routeLength="1994.90" waitingTime="35.00" waitingCount="1" stopTime="0.00" timeLoss="60.58" rerouteNo="0" devices="tripinfo_f_0_12.5" vType="DEFAULT_VEHTYPE" speedFactor="1.00" vaporized=""/>
    <tripinfo id="f_0_13.3" depart="12.00" departLane="G6G7_0" departPos="5.10" departSpeed="0.00" departDelay="3.00" arrival="229.00" arrivalLane="G9G10_0" arrivalPos="491.30" arrivalSpeed="12.76" duration="217.00" routeLength="1993.50" waitingTime="39.00" waitingCount="1" stopTime="0.00" timeLoss="64.82" rerouteNo="0" devices="tripinfo_f_0_13.3" vType="DEFAULT_VEHTYPE" speedFactor="0.95" vaporized=""/>
    <tripinfo id="f_0_13.4" depart="15.00" departLane="G6G7_0" departPos="5.10" departSpeed="0.00" departDelay="1.00" arrival="230.00" arrivalLane="G9G10_0" arrivalPos="491.30" arrivalSpeed="13.98" duration="215.00" routeLength="1993.50" waitingTime="39.00" waitingCount="1" stopTime="0.00" timeLoss="93.15" rerouteNo="0" devices="tripinfo_f_0_13.4" vType="DEFAULT_VEHTYPE" speedFactor="1.18" vaporized=""/>
    <tripinfo id="f_0_12.6" depart="26.00" departLane="G11G10_0" departPos="5.10" departSpeed="0.00" departDelay="2.00" arrival="230.00" arrivalLane="G8G7_0" arrivalPos="492.80" arrivalSpeed="13.11" duration="204.00" routeLength="1994.90" waitingTime="35.00" waitingCount="1" stopTime="0.00" timeLoss="55.38" rerouteNo="0" devices="tripinfo_f_0_12.6" vType="DEFAULT_VEHTYPE" speedFactor="0.97" vaporized=""/>
    <tripinfo id="f_0_12.7" depart="31.00" departLane="G11G10_0" departPos="5.10" departSpeed="0.00" departDelay="0.00" arrival="232.00" arrivalLane="G8G7_0" arrivalPos="492.80" arrivalSpeed="13.60" duration="201.00" routeLength="1994.90" waitingTime="35.00" waitingCount="1" stopTime="0.00" timeLoss="56.39" rerouteNo="0" devices="tripinfo_f_0_12.7" vType="DEFAULT_VEHTYPE" speedFactor="1.00" vaporized=""/>
    <tripinfo id="f_0_13.5" depart="21.00" departLane="G6G7_0" departPos="5.10" departSpeed="0.00" departDelay="0.00" arrival="233.00" arrivalLane="G9G10_0" arrivalPos="491.30" arrivalSpeed="11.79" duration="212.00" routeLength="1993.50" waitingTime="31.00" waitingCount="1" stopTime="0.00" timeLoss="48.07" rerouteNo="0" devices="tripinfo_f_0_13.5" vType="DEFAULT_VEHTYPE" speedFactor="0.88" vaporized=""/>
    <tripinfo id="f_0_12.8" depart="34.00" departLane="G11G10_0" departPos="5.10" departSpeed="0.00" departDelay="0.00" arrival="233.00" arrivalLane="G8G7_0" arrivalPos="492.80" arrivalSpeed="14.43" duration="199.00" routeLength="1994.90" waitingTime="35.00" waitingCount="2" stopTime="0.00" timeLoss="61.14" rerouteNo="0" devices="tripinfo_f_0_12.8" vType="DEFAULT_VEHTYPE" speedFactor="1.04" vaporized=""/>
    <tripinfo id="f_0_12.9" depart="39.00" departLane="G11G10_0" departPos="5.10" departSpeed="0.00" departDelay="0.00" arrival="235.00" arrivalLane="G8G7_0" arrivalPos="492.80" arrivalSpeed="14.86" duration="196.00" routeLength="1994.90" waitingTime="34.00" waitingCount="1" stopTime="0.00" timeLoss="63.87" rerouteNo="0" devices="tripinfo_f_0_12.9" vType="DEFAULT_VEHTYPE" speedFactor="1.09" vaporized=""/>
    <tripinfo id="f_0_13.6" depart="24.00" departLane="G6G7_0" departPos="5.10" departSpeed="0.00" departDelay="2.00" arrival="236.00" arrivalLane="G9G10_0" arrivalPos="491.30" arrivalSpeed="11.43" duration="212.00" routeLength="1993.50" waitingTime="25.00" waitingCount="1" stopTime="0.00" timeLoss="43.97" rerouteNo="0" devices="tripinfo_f_0_13.6" vType="DEFAULT_VEHTYPE" speedFactor="0.85" vaporized=""/>
    <tripinfo id="f_0_13.7" depart="27.00" departLane="G6G7_0" departPos="5.10" departSpeed="0.00" departDelay="4.00" arrival="238.00" arrivalLane="G9G10_0" arrivalPos="491.30" arrivalSpeed="12.28" duration="211.00" routeLength="1993.50" waitingTime="25.00" waitingCount="1" stopTime="0.00" timeLoss="50.99" rerouteNo="0" devices="tripinfo_f_0_13.7" vType="DEFAULT_VEHTYPE" speedFactor="0.90" vaporized=""/>
    <tripinfo id="f_0_12.10" depart="46.00" departLane="G11G10_0" departPos="5.10" departSpeed="0.00" departDelay="0.00" arrival="238.00" arrivalLane="G8G7_0" arrivalPos="492.80" arrivalSpeed="11.59" duration="192.00" routeLength="1994.90" waitingTime="17.00" waitingCount="1" stopTime="0.00" timeLoss="35.35" rerouteNo="0" devices="tripinfo_f_0_12.10" vType="DEFAULT_VEHTYPE" speedFactor="0.92" vaporized=""/>
    <tripinfo id="f_0_13.8" depart="30.00" departLane="G6G7_0" departPos="5.10" departSpeed="0.00" departDelay="5.00" arrival="240.00" arrivalLane="G9G10_0" arrivalPos="491.30" arrivalSpeed="13.11" duration="210.00" routeLength="1993.50" waitingTime="24.00" waitingCount="1" stopTime="0.00" timeLoss="68.05" rerouteNo="0" devices="tripinfo_f_0_13.8" vType="DEFAULT_VEHTYPE" speedFactor="1.02" vaporized=""/>
    <tripinfo id="f_0_13.9" depart="33.00" departLane="G6G7_0" departPos="5.10" departSpeed="0.00" departDelay="7.00" arrival="242.00" arrivalLane="G9G10_0" arrivalPos="491.30" arrivalSpeed="10.96" duration="209.00" routeLength="1993.50" waitingTime="23.00" waitingCount="1" stopTime="0.00" timeLoss="45.94" rerouteNo="0" devices="tripinfo_f_0_13.9" vType="DEFAULT_VEHTYPE" speedFactor="0.88" vaporized=""/>
    <tripinfo id="f_0_13.10" depart="36.00" departLane="G6G7_0" departPos="5.10" departSpeed="0.00" departDelay="9.00" arrival="244.00" arrivalLane="G9G10_0" arrivalPos="491.30" arrivalSpeed="11.45" duration="208.00" routeLength="1993.50" waitingTime="23.00" waitingCount="1" stopTime="0.00" timeLoss="50.53" rerouteNo="0" devices="tripinfo_f_0_13.10" vType="DEFAULT_VEHTYPE" speedFactor="0.91" vaporized=""/>
    <tripinfo id="f_0_13.11" depart="39.00" departLane="G6G7_0" departPos="5.10" departSpeed="0.00" departDelay="11.00" arrival="245.00" arrivalLane="G9G10_0" arrivalPos="491.30" arrivalSpeed="14.17" duration="206.00" routeLength="1993.50" waitingTime="23.00" waitingCount="1" stopTime="0.00" timeLoss="65.66" rerouteNo="0" devices="tripinfo_f_0_13.11" vType="DEFAULT_VEHTYPE" speedFactor="1.02" vaporized=""/>
    <tripinfo id="f_0_13.12" depart="42.00" departLane="G6G7_0" departPos="5.10" departSpeed="0.00" departDelay="12.00" arrival="247.00" arrivalLane="G9G10_0" arrivalPos="491.30" arrivalSpeed="13.38" duration="205.00" routeLength="1993.50" waitingTime="22.00" waitingCount="1" stopTime="0.00" timeLoss="65.78" rerouteNo="0" devices="tripinfo_f_0_13.12" vType="DEFAULT_VEHTYPE" speedFactor="1.03" vaporized=""/>
    <tripinfo id="f_0_13.13" depart="45.00" departLane="G6G7_0" departPos="5.10" departSpeed="0.00" departDelay="12.00" arrival="249.00" arrivalLane="G9G10_0" arrivalPos="491.30" arrivalSpeed="13.53" duration="204.00" routeLength="1993.50" waitingTime="22.00" waitingCount="1" stopTime="0.00" timeLoss="56.50" rerouteNo="0" devices="tripinfo_f_0_13.13" vType="DEFAULT_VEHTYPE" speedFactor="0.98" vaporized=""/>
    <tripinfo id="f_0_13.14" depart="48.00" departLane="G6G7_0" departPos="5.10" departSpeed="0.00" departDelay="9.00" arrival="251.00" arrivalLane="G9G10_0" arrivalPos="491.30" arrivalSpeed="13.45" duration="203.00" routeLength="1993.50" waitingTime="22.00" waitingCount="1" stopTime="0.00" timeLoss="66.57" rerouteNo="0" devices="tripinfo_f_0_13.14" vType="DEFAULT_VEHTYPE" speedFactor="1.06" vaporized=""/>
    <tripinfo id="f_0_13.15" depart="51.00" departLane="G6G7_0" departPos="5.10" departSpeed="0.00" departDelay="11.00" arrival="252.00" arrivalLane="G9G10_0" arrivalPos="491.30" arrivalSpeed="14.39" duration="201.00" routeLength="1993.50" waitingTime="21.00" waitingCount="1" stopTime="0.00" timeLoss="70.13" rerouteNo="0" devices="tripinfo_f_0_13.15" vType="DEFAULT_VEHTYPE" speedFactor="1.10" vaporized=""/>
    <tripinfo id="f_0_12.11" depart="49.00" departLane="G11G10_0" departPos="5.10" departSpeed="0.00" departDelay="0.00" arrival="252.00" arrivalLane="G8G7_0" arrivalPos="492.80" arrivalSpeed="14.27" duration="203.00" routeLength="1994.90" waitingTime="46.00" waitingCount="1" stopTime="0.00" timeLoss="72.25" rerouteNo="0" devices="tripinfo_f_0_12.11" vType="DEFAULT_VEHTYPE" speedFactor="1.10" vaporized=""/>
    <tripinfo id="f_0_20.0" depart="63.00" departLane="C7C6_0" departPos="5.10" departSpeed="0.00" departDelay="0.00" arrival="253.00" arrivalLane="C4C3_0" arrivalPos="491.30" arrivalSpeed="14.19" duration="190.00" routeLength="1993.50" waitingTime="41.00" waitingCount="1" stopTime="0.00" timeLoss="56.58" rerouteNo="0" devices="tripinfo_f_0_20.0" vType="DEFAULT_VEHTYPE" speedFactor="1.08" vaporized=""/>
    <tripinfo id="f_0_31.0" depart="61.00" departLane="H2H3_0" departPos="5.10" departSpeed="0.00" departDelay="0.00" arrival="254.00" arrivalLane="H5H6_0" arrivalPos="492.80" arrivalSpeed="14.62" duration="193.00" routeLength="1994.90" waitingTime="42.00" waitingCount="1" stopTime="0.00" timeLoss="58.22" rerouteNo="0" devices="tripinfo_f_0_31.0" vType="DEFAULT_VEHTYPE" speedFactor="1.07" vaporized=""/>
    <tripinfo id="f_0_22.0" depart="60.00" departLane="D7D6_0" departPos="5.10" departSpeed="0.00" departDelay="0.00" arrival="255.00" arrivalLane="D4D3_0" arrivalPos="491.30" arrivalSpeed="13.19" duration="195.00" routeLength="1993.50" waitingTime="41.00" waitingCount="1" stopTime="0.00" timeLoss="56.71" rerouteNo="0" devices="tripinfo_f_0_22.0" vType="DEFAULT_VEHTYPE" speedFactor="1.04" vaporized=""/>
    <tripinfo id="f_0_20.1" depart="74.00" departLane="C7C6_0" departPos="5.10" departSpeed="0.00" departDelay="0.00" arrival="255.00" arrivalLane="C4C3_0" arrivalPos="491.30" arrivalSpeed="14.05" duration="181.00" routeLength="1993.50" waitingTime="33.00" waitingCount="1" stopTime="0.00" timeLoss="49.99" rerouteNo="0" devices="tripinfo_f_0_20.1" vType="DEFAULT_VEHTYPE" speedFactor="1.10" vaporized=""/>
    <tripinfo id="f_0_31.1" depart="64.00" departLane="H2H3_0" departPos="5.10" departSpeed="0.00" departDelay="0.00" arrival="256.00" arrivalLane="H5H6_0" arrivalPos="492.80" arrivalSpeed="14.07" duration="192.00" routeLength="1994.90" waitingTime="41.00" waitingCount="1" stopTime="0.00" timeLoss="57.89" rerouteNo="0" devices="tripinfo_f_0_31.1" vType="DEFAULT_VEHTYPE" speedFactor="1.08" vaporized=""/>
    <tripinfo id="f_0_22.1" depart="65.00" departLane="D7D6_0" departPos="5.10" departSpeed="0.00" departDelay="0.00" arrival="257.00" arrivalLane="D4D3_0" arrivalPos="491.30" arrivalSpeed="13.61" duration="192.00" routeLength="1993.50" waitingTime="38.00" waitingCount="1" stopTime="0.00" timeLoss="54.97" rerouteNo="0" devices="tripinfo_f_0_22.1" vType="DEFAULT_VEHTYPE" speedFactor="1.05" vaporized=""/>
    <tripinfo id="f_0_12.12" depart="52.00" departLane="G11G10_0" departPos="5.10" departSpeed="0.00" departDelay="2.00" arrival="258.00" arrivalLane="G8G7_0" arrivalPos="492.80" arrivalSpeed="13.88" duration="206.00" routeLength="1994.90" waitingTime="44.00" waitingCount="1" stopTime="0.00" timeLoss="66.70" rerouteNo="0" devices="tripinfo_f_0_12.12" vType="DEFAULT_VEHTYPE" speedFactor="1.03" vaporized=""/>
    <tripinfo id="f_0_29.0" depart="61.00" departLane="G2G3_0" departPos="5.10" departSpeed="0.00" departDelay="0.00" arrival="258.00" arrivalLane="G5G6_0" arrivalPos="492.80" arrivalSpeed="13.34" duration="197.00" routeLength="1994.90" waitingTime="39.00" waitingCount="1" stopTime="0.00" timeLoss="53.61" rerouteNo="0" devices="tripinfo_f_0_29.0" vType="DEFAULT_VEHTYPE" speedFactor="1.00" vaporized=""/>
    <tripinfo id="f_0_14.0" depart="65.00" departLane="H11H10_0" departPos="5.10" departSpeed="0.00" departDelay="0.00" arrival="259.00" arrivalLane="H8H7_0" arrivalPos="492.80" arrivalSpeed="13.38" duration="194.00" routeLength="1994.90" waitingTime="33.00" waitingCount="1" stopTime="0.00" timeLoss="49.01" rerouteNo="0" devices="tripinfo_f_0_14.0" vType="DEFAULT_VEHTYPE" speedFactor="0.99" vaporized=""/>
    <tripinfo id="f_0_22.2" depart="71.00" departLane="D7D6_0" departPos="5.10" departSpeed="0.00" departDelay="0.00" arrival="259.00" arrivalLane="D4D3_0" arrivalPos="491.30" arrivalSpeed="15.06" duration="188.00" routeLength="1993.50" waitingTime="36.00" waitingCount="1" stopTime="0.00" timeLoss="61.40" rerouteNo="0" devices="tripinfo_f_0_22.2" vType="DEFAULT_VEHTYPE" speedFactor="1.14" vaporized=""/>
    <tripinfo id="f_0_15.0" depart="60.00" departLane="H6H7_0" departPos="5.10" departSpeed="0.00" departDelay="0.00" arrival="261.00" arrivalLane="H9H10_0" arrivalPos="491.30" arrivalSpeed="12.27" duration="201.00" routeLength="1993.50" waitingTime="37.00" waitingCount="1" stopTime="0.00" timeLoss="52.33" rerouteNo="0" devices="tripinfo_f_0_15.0" vType="DEFAULT_VEHTYPE" speedFactor="0.97" vaporized=""/>
    <tripinfo id="f_0_14.1" depart="68.00" departLane="H11H10_0" departPos="5.10" departSpeed="0.00" departDelay="2.00" arrival="261.00" arrivalLane="H8H7_0" arrivalPos="492.80" arrivalSpeed="12.95" duration="193.00" routeLength="1994.90" waitingTime="33.00" waitingCount="1" stopTime="0.00" timeLoss="49.50" rerouteNo="0" devices="tripinfo_f_0_14.1" vType="DEFAULT_VEHTYPE" speedFactor="1.00" vaporized=""/>
    <tripinfo id="f_0_13.16" depart="54.00" departLane="G6G7_0" departPos="5.10" departSpeed="0.00" departDelay="13.00" arrival="262.00" arrivalLane="G9G10_0" arrivalPos="491.30" arrivalSpeed="13.00" duration="208.00" routeLength="1993.50" waitingTime="41.00" waitingCount="1" stopTime="0.00" timeLoss="57.70" rerouteNo="0" devices="tripinfo_f_0_13.16" vType="DEFAULT_VEHTYPE" speedFactor="0.96" vaporized=""/>
    <tripinfo id="f_0_27.6" depart="25.00" departLane="J4I4_0" departPos="5.10" departSpeed="0.00" departDelay="0.00" arrival="266.00" arrivalLane="G4F4_0" arrivalPos="492.80" arrivalSpeed="13.11" duration="241.00" routeLength="1994.90" waitingTime="72.00" waitingCount="2" stopTime="0.00" timeLoss="95.29" rerouteNo="0" devices="tripinfo_f_0_27.6" vType="DEFAULT_VEHTYPE" speedFactor="0.99" vaporized=""/>
    <tripinfo id="f_0_3.1" depart="63.00" departLane="F8E8_0" departPos="5.10" departSpeed="0.00" departDelay="2.00" arrival="267.00" arrivalLane="C8B8_0" arrivalPos="491.30" arrivalSpeed="13.27" duration="204.00" routeLength="1993.50" waitingTime="38.00" waitingCount="1" stopTime="0.00" timeLoss="54.66" rerouteNo="0" devices="tripinfo_f_0_3.1" vType="DEFAULT_VEHTYPE" speedFactor="0.96" vaporized=""/>
    <tripinfo id="f_0_27.7" depart="28.00" departLane="J4I4_0" departPos="5.10" departSpeed="0.00" departDelay="1.00" arrival="268.00" arrivalLane="G4F4_0" arrivalPos="492.80" arrivalSpeed="13.10" duration="240.00" routeLength="1994.90" waitingTime="70.00" waitingCount="2" stopTime="0.00" timeLoss="98.99" rerouteNo="0" devices="tripinfo_f_0_27.7" vType="DEFAULT_VEHTYPE" speedFactor="1.02" vaporized=""/>
    <tripinfo id="f_0_16.1" depart="5.00" departLane="A5B5_0" departPos="5.10" departSpeed="0.00" departDelay="0.00" arrival="269.00" arrivalLane="D5E5_0" arrivalPos="492.80" arrivalSpeed="11.95" duration="264.00" routeLength="1994.90" waitingTime="89.00" waitingCount="2" stopTime="0.00" timeLoss="108.50" rerouteNo="0" devices="tripinfo_f_0_16.1" vType="DEFAULT_VEHTYPE" speedFactor="0.93" vaporized=""/>
    <tripinfo id="f_0_2.0" depart="62.00" departLane="A8B8_0" departPos="5.10" departSpeed="0.00" departDelay="0.00" arrival="269.00" arrivalLane="D8E8_0" arrivalPos="492.80" arrivalSpeed="12.54" duration="207.00" routeLength="1994.90" waitingTime="34.00" waitingCount="1" stopTime="0.00" timeLoss="51.57" rerouteNo="0" devices="tripinfo_f_0_2.0" vType="DEFAULT_VEHTYPE" speedFactor="0.93" vaporized=""/>
    <tripinfo id="f_0_3.2" depart="66.00" departLane="F8E8_0" departPos="5.10" departSpeed="0.00" departDelay="4.00" arrival="269.00" arrivalLane="C8B8_0" arrivalPos="491.30" arrivalSpeed="14.32" duration="203.00" routeLength="1993.50" waitingTime="38.00" waitingCount="1" stopTime="0.00" timeLoss="67.46" rerouteNo="0" devices="tripinfo_f_0_3.2" vType="DEFAULT_VEHTYPE" speedFactor="1.06" vaporized=""/>
    <tripinfo id="f_0_27.8" depart="31.00" departLane="J4I4_0" departPos="5.10" departSpeed="0.00" departDelay="1.00" arrival="270.00" arrivalLane="G4F4_0" arrivalPos="492.80" arrivalSpeed="13.98" duration="239.00" routeLength="1994.90" waitingTime="69.00" waitingCount="2" stopTime="0.00" timeLoss="106.00" rerouteNo="0" devices="tripinfo_f_0_27.8" vType="DEFAULT_VEHTYPE" speedFactor="1.09" vaporized=""/>
    <tripinfo id="f_0_18.1" depart="3.00" departLane="A4B4_0" departPos="5.10" departSpeed="0.00" departDelay="0.00" arrival="271.00" arrivalLane="D4E4_0" arrivalPos="492.80" arrivalSpeed="11.59" duration="268.00" routeLength="1994.90" waitingTime="84.00" waitingCount="2" stopTime="0.00" timeLoss="105.44" rerouteNo="0" devices="tripinfo_f_0_18.1" vType="DEFAULT_VEHTYPE" speedFactor="0.89" vaporized=""/>
    <tripinfo id="f_0_25.2" depart="9.00" departLane="J5I5_0" departPos="5.10" departSpeed="0.00" departDelay="4.00" arrival="271.00" arrivalLane="G5F5_0" arrivalPos="492.80" arrivalSpeed="11.10" duration="262.00" routeLength="1994.90" waitingTime="78.00" waitingCount="2" stopTime="0.00" timeLoss="97.69" rerouteNo="0" devices="tripinfo_f_0_25.2" vType="DEFAULT_VEHTYPE" speedFactor="0.88" vaporized=""/>
    <tripinfo id="f_0_16.2" depart="8.00" departLane="A5B5_0" departPos="5.10" departSpeed="0.00" departDelay="1.00" arrival="271.00" arrivalLane="D5E5_0" arrivalPos="492.80" arrivalSpeed="15.47" duration="263.00" routeLength="1994.90" waitingTime="86.00" waitingCount="2" stopTime="0.00" timeLoss="138.06" rerouteNo="0" devices="tripinfo_f_0_16.2" vType="DEFAULT_VEHTYPE" speedFactor="1.16" vaporized=""/>
    <tripinfo id="f_0_2.1" depart="65.00" departLane="A8B8_0" departPos="5.10" departSpeed="0.00" departDelay="2.00" arrival="271.00" arrivalLane="D8E8_0" arrivalPos="492.80" arrivalSpeed="15.14" duration="206.00" routeLength="1994.90" waitingTime="34.00" waitingCount="1" stopTime="0.00" timeLoss="77.21" rerouteNo="0" devices="tripinfo_f_0_2.1" vType="DEFAULT_VEHTYPE" speedFactor="1.12" vaporized=""/>
    <tripinfo id="f_0_1.0" depart="4.00" departLane="F9E9_0" departPos="5.10" departSpeed="0.00" departDelay="0.00" arrival="272.00" arrivalLane="C9B9_0" arrivalPos="491.30" arrivalSpeed="11.38" duration="268.00" routeLength="1993.50" waitingTime="78.00" waitingCount="2" stopTime="0.00" timeLoss="99.91" rerouteNo="0" devices="tripinfo_f_0_1.0" vType="DEFAULT_VEHTYPE" speedFactor="0.86" vaporized=""/>
    <tripinfo id="f_0_25.3" depart="12.00" departLane="J5I5_0" departPos="5.10" departSpeed="0.00" departDelay="5.00" arrival="272.00" arrivalLane="G5F5_0" arrivalPos="492.80" arrivalSpeed="13.42" duration="260.00" routeLength="1994.90" waitingTime="74.00" waitingCount="2" stopTime="0.00" timeLoss="118.72" rerouteNo="0" devices="tripinfo_f_0_25.3" vType="DEFAULT_VEHTYPE" speedFactor="1.02" vaporized=""/>
    <tripinfo id="f_0_27.9" depart="34.00" departLane="J4I4_0" departPos="5.10" departSpeed="0.00" departDelay="2.00" arrival="272.00" arrivalLane="G4F4_0" arrivalPos="492.80" arrivalSpeed="13.08" duration="238.00" routeLength="1994.90" waitingTime="67.00" waitingCount="2" stopTime="0.00" timeLoss="89.21" rerouteNo="0" devices="tripinfo_f_0_27.9" vType="DEFAULT_VEHTYPE" speedFactor="0.97" vaporized=""/>
    <tripinfo id="f_0_18.2" depart="9.00" departLane="A4B4_0" departPos="5.10" departSpeed="0.00" departDelay="0.00" arrival="273.00" arrivalLane="D4E4_0" arrivalPos="492.80" arrivalSpeed="12.92" duration="264.00" routeLength="1994.90" waitingTime="82.00" waitingCount="2" stopTime="0.00" timeLoss="109.07" rerouteNo="0" devices="tripinfo_f_0_18.2" vType="DEFAULT_VEHTYPE" speedFactor="0.93" vaporized=""/>
    <tripinfo id="f_0_0.0" depart="2.00" departLane="A9B9_0" departPos="5.10" departSpeed="0.00" departDelay="0.00" arrival="274.00" arrivalLane="D9E9_0" arrivalPos="492.80" arrivalSpeed="10.73" duration="272.00" routeLength="1994.90" waitingTime="76.00" waitingCount="2" stopTime="0.00" timeLoss="98.73" rerouteNo="0" devices="tripinfo_f_0_0.0" vType="DEFAULT_VEHTYPE" speedFactor="0.83" vaporized=""/>
    <tripinfo id="f_0_1.1" depart="10.00" departLane="F9E9_0" departPos="5.10" departSpeed="0.00" departDelay="0.00" arrival="274.00" arrivalLane="C9B9_0" arrivalPos="491.30" arrivalSpeed="14.80" duration="264.00" routeLength="1993.50" waitingTime="76.00" waitingCount="2" stopTime="0.00" timeLoss="138.83" rerouteNo="0" devices="tripinfo_f_0_1.1" vType="DEFAULT_VEHTYPE" speedFactor="1.15" vaporized=""/>
    <tripinfo id="f_0_25.4" depart="15.00" departLane="J5I5_0" departPos="5.10" departSpeed="0.00" departDelay="4.00" arrival="274.00" arrivalLane="G5F5_0" arrivalPos="492.80" arrivalSpeed="16.05" duration="259.00" routeLength="1994.90" waitingTime="71.00" waitingCount="2" stopTime="0.00" timeLoss="135.87" rerouteNo="0" devices="tripinfo_f_0_25.4" vType="DEFAULT_VEHTYPE" speedFactor="1.17" vaporized=""/>
    <tripinfo id="f_0_18.3" depart="13.00" departLane="A4B4_0" departPos="5.10" departSpeed="0.00" departDelay="0.00" arrival="274.00" arrivalLane="D4E4_0" arrivalPos="492.80" arrivalSpeed="13.13" duration="261.00" routeLength="1994.90" waitingTime="80.00" waitingCount="2" stopTime="0.00" timeLoss="120.12" rerouteNo="0" devices="tripinfo_f_0_18.3" vType="DEFAULT_VEHTYPE" speedFactor="1.02" vaporized=""/>