<?xml version="1.0" encoding="UTF-8"?>

<!-- generated on 2024-08-16 22:33:21 by Eclipse SUMO sumo Version 1.12.0
<configuration xmlns:xsi="http://www.w3.org/2001/XMLSchema-instance" xsi:noNamespaceSchemaLocation="http://sumo.dlr.de/xsd/sumoConfiguration.xsd">

    <input>
        <net-file value="quad_no_lights.net.xml"/>
        <route-files value="quad_2.rou.xml"/>
    </input>

    <output>
        <summary-output value="control_summaries//summary_quad_no_lights_2.xml"/>
        <tripinfo-output value="control_summaries//tripinfos_quad_no_lights_2.xml"/>
    </output>

    <processing>
        <time-to-teleport value="-1"/>
    </processing>

    <traci_server>
        <remote-port value="34097"/>
    </traci_server>

</configuration>
-->

<tripinfos xmlns:xsi="http://www.w3.org/2001/XMLSchema-instance" xsi:noNamespaceSchemaLocation="http://sumo.dlr.de/xsd/tripinfo_file.xsd">
    <tripinfo id="f_1_29.0" depart="3.00" departLane="G2G3_0" departPos="5.10" departSpeed="0.00" departDelay="0.00" arrival="137.00" arrivalLane="G5G6_0" arrivalPos="492.80" arrivalSpeed="15.61" duration="134.00" routeLength="1994.90" waitingTime="0.00" waitingCount="0" stopTime="0.00" timeLoss="9.21" rerouteNo="0" devices="tripinfo_f_1_29.0" vType="DEFAULT_VEHTYPE" speedFactor="1.15" vaporized=""/>
    <tripinfo id="f_0_14.0" depart="0.00" departLane="H11H10_0" departPos="5.10" departSpeed="0.00" departDelay="0.00" arrival="142.00" arrivalLane="H8H7_0" arrivalPos="492.80" arrivalSpeed="14.85" duration="142.00" routeLength="1994.90" waitingTime="0.00" waitingCount="0" stopTime="0.00" timeLoss="8.63" rerouteNo="0" devices="tripinfo_f_0_14.0" vType="DEFAULT_VEHTYPE" speedFactor="1.08" vaporized=""/>
    <tripinfo id="f_0_15.0" depart="1.00" departLane="H6H7_0" departPos="5.10" departSpeed="0.00" departDelay="0.00" arrival="142.00" arrivalLane="H9H10_0" arrivalPos="491.30" arrivalSpeed="15.05" duration="141.00" routeLength="1993.50" waitingTime="0.00" waitingCount="0" stopTime="0.00" timeLoss="9.16" rerouteNo="0" devices="tripinfo_f_0_15.0" vType="DEFAULT_VEHTYPE" speedFactor="1.09" vaporized=""/>
    <tripinfo id="f_0_4.0" depart="0.00" departLane="C11C10_0" departPos="5.10" departSpeed="0.00" departDelay="0.00" arrival="146.00" arrivalLane="C8C7_0" arrivalPos="492.80" arrivalSpeed="14.13" duration="146.00" routeLength="1994.90" waitingTime="0.00" waitingCount="0" stopTime="0.00" timeLoss="10.14" rerouteNo="0" devices="tripinfo_f_0_4.0" vType="DEFAULT_VEHTYPE" speedFactor="1.06" vaporized=""/>
    <tripinfo id="f_1_30.0" depart="0.00" departLane="H7H6_0" departPos="5.10" departSpeed="0.00" departDelay="0.00" arrival="147.00" arrivalLane="H4H3_0" arrivalPos="491.30" arrivalSpeed="14.43" duration="147.00" routeLength="1993.50" waitingTime="0.00" waitingCount="0" stopTime="0.00" timeLoss="9.72" rerouteNo="0" devices="tripinfo_f_1_30.0" vType="DEFAULT_VEHTYPE" speedFactor="1.05" vaporized=""/>
    <tripinfo id="f_1_27.0" depart="1.00" departLane="J4I4_0" departPos="5.10" departSpeed="0.00" departDelay="0.00" arrival="149.00" arrivalLane="G4F4_0" arrivalPos="492.80" arrivalSpeed="15.39" duration="148.00" routeLength="1994.90" waitingTime="3.00" waitingCount="1" stopTime="0.00" timeLoss="19.32" rerouteNo="0" devices="tripinfo_f_1_27.0" vType="DEFAULT_VEHTYPE" speedFactor="1.12" vaporized=""/>
    <tripinfo id="f_0_23.0" depart="0.00" departLane="D2D3_0" departPos="5.10" departSpeed="0.00" departDelay="0.00" arrival="150.00" arrivalLane="D5D6_0" arrivalPos="492.80" arrivalSpeed="13.95" duration="150.00" routeLength="1994.90" waitingTime="0.00" waitingCount="0" stopTime="0.00" timeLoss="10.16" rerouteNo="0" devices="tripinfo_f_0_23.0" vType="DEFAULT_VEHTYPE" speedFactor="1.03" vaporized=""/>
    <tripinfo id="f_0_20.0" depart="1.00" departLane="C7C6_0" departPos="5.10" departSpeed="0.00" departDelay="0.00" arrival="151.00" arrivalLane="C4C3_0" arrivalPos="491.30" arrivalSpeed="13.19" duration="150.00" routeLength="1993.50" waitingTime="0.00" waitingCount="0" stopTime="0.00" timeLoss="9.56" rerouteNo="0" devices="tripinfo_f_0_20.0" vType="DEFAULT_VEHTYPE" speedFactor="1.03" vaporized=""/>
    <tripinfo id="f_0_23.1" depart="3.00" departLane="D2D3_0" departPos="5.10" departSpeed="0.00" departDelay="2.00" arrival="152.00" arrivalLane="D5D6_0" arrivalPos="492.80" arrivalSpeed="13.54" duration="149.00" routeLength="1994.90" waitingTime="0.00" waitingCount="0" stopTime="0.00" timeLoss="11.30" rerouteNo="0" devices="tripinfo_f_0_23.1" vType="DEFAULT_VEHTYPE" speedFactor="1.05" vaporized=""/>
    <tripinfo id="f_0_20.1" depart="4.00" departLane="C7C6_0" departPos="5.10" departSpeed="0.00" departDelay="2.00" arrival="152.00" arrivalLane="C4C3_0" arrivalPos="491.30" arrivalSpeed="15.95" duration="148.00" routeLength="1993.50" waitingTime="0.00" waitingCount="0" stopTime="0.00" timeLoss="23.96" rerouteNo="0" devices="tripinfo_f_0_20.1" vType="DEFAULT_VEHTYPE" speedFactor="1.16" vaporized=""/>
    <tripinfo id="f_1_26.0" depart="16.00" departLane="E4F4_0" departPos="5.10" departSpeed="0.00" departDelay="0.00" arrival="153.00" arrivalLane="H4I4_0" arrivalPos="491.30" arrivalSpeed="16.20" duration="137.00" routeLength="1993.50" waitingTime="0.00" waitingCount="0" stopTime="0.00" timeLoss="15.02" rerouteNo="0" devices="tripinfo_f_1_26.0" vType="DEFAULT_VEHTYPE" speedFactor="1.18" vaporized=""/>
    <tripinfo id="f_0_18.0" depart="4.00" departLane="A4B4_0" departPos="5.10" departSpeed="0.00" departDelay="0.00" arrival="154.00" arrivalLane="D4E4_0" arrivalPos="492.80" arrivalSpeed="16.11" duration="150.00" routeLength="1994.90" waitingTime="10.00" waitingCount="1" stopTime="0.00" timeLoss="26.98" rerouteNo="0" devices="tripinfo_f_0_18.0" vType="DEFAULT_VEHTYPE" speedFactor="1.17" vaporized=""/>
    <tripinfo id="f_1_31.0" depart="5.00" departLane="H2H3_0" departPos="5.10" departSpeed="0.00" departDelay="0.00" arrival="155.00" arrivalLane="H5H6_0" arrivalPos="492.80" arrivalSpeed="13.06" duration="150.00" routeLength="1994.90" waitingTime="0.00" waitingCount="0" stopTime="0.00" timeLoss="10.07" rerouteNo="0" devices="tripinfo_f_1_31.0" vType="DEFAULT_VEHTYPE" speedFactor="1.03" vaporized=""/>
    <tripinfo id="f_0_23.2" depart="6.00" departLane="D2D3_0" departPos="5.10" departSpeed="0.00" departDelay="4.00" arrival="158.00" arrivalLane="D5D6_0" arrivalPos="492.80" arrivalSpeed="13.87" duration="152.00" routeLength="1994.90" waitingTime="0.00" waitingCount="0" stopTime="0.00" timeLoss="10.10" rerouteNo="0" devices="tripinfo_f_0_23.2" vType="DEFAULT_VEHTYPE" speedFactor="1.02" vaporized=""/>
    <tripinfo id="f_1_29.1" depart="6.00" departLane="G2G3_0" departPos="5.10" departSpeed="0.00" departDelay="2.00" arrival="158.00" arrivalLane="G5G6_0" arrivalPos="492.80" arrivalSpeed="14.07" duration="152.00" routeLength="1994.90" waitingTime="0.00" waitingCount="0" stopTime="0.00" timeLoss="10.36" rerouteNo="0" devices="tripinfo_f_1_29.1" vType="DEFAULT_VEHTYPE" speedFactor="1.02" vaporized=""/>
    <tripinfo id="f_1_27.1" depart="4.00" departLane="J4I4_0" departPos="5.10" departSpeed="0.00" departDelay="2.00" arrival="162.00" arrivalLane="G4F4_0" arrivalPos="492.80" arrivalSpeed="13.24" duration="158.00" routeLength="1994.90" waitingTime="0.00" waitingCount="0" stopTime="0.00" timeLoss="15.76" rerouteNo="0" devices="tripinfo_f_1_27.1" vType="DEFAULT_VEHTYPE" speedFactor="1.01" vaporized=""/>
    <tripinfo id="f_0_15.1" depart="7.00" departLane="H6H7_0" departPos="5.10" departSpeed="0.00" departDelay="0.00" arrival="162.00" arrivalLane="H9H10_0" arrivalPos="491.30" arrivalSpeed="13.74" duration="155.00" routeLength="1993.50" waitingTime="0.00" waitingCount="0" stopTime="0.00" timeLoss="10.40" rerouteNo="0" devices="tripinfo_f_0_15.1" vType="DEFAULT_VEHTYPE" speedFactor="1.00" vaporized=""/>
    <tripinfo id="f_0_17.0" depart="20.00" departLane="F5E5_0" departPos="5.10" departSpeed="0.00" departDelay="0.00" arrival="163.00" arrivalLane="C5B5_0" arrivalPos="491.30" arrivalSpeed="15.15" duration="143.00" routeLength="1993.50" waitingTime="0.00" waitingCount="0" stopTime="0.00" timeLoss="19.22" rerouteNo="0" devices="tripinfo_f_0_17.0" vType="DEFAULT_VEHTYPE" speedFactor="1.16" vaporized=""/>
    <tripinfo id="f_0_14.1" depart="3.00" departLane="H11H10_0" departPos="5.10" departSpeed="0.00" departDelay="1.00" arrival="166.00" arrivalLane="H8H7_0" arrivalPos="492.80" arrivalSpeed="13.02" duration="163.00" routeLength="1994.90" waitingTime="0.00" waitingCount="0" stopTime="0.00" timeLoss="10.38" rerouteNo="0" devices="tripinfo_f_0_14.1" vType="DEFAULT_VEHTYPE" speedFactor="0.94" vaporized=""/>
    <tripinfo id="f_0_1.0" depart="5.00" departLane="F9E9_0" departPos="5.10" departSpeed="0.00" departDelay="0.00" arrival="166.00" arrivalLane="C9B9_0" arrivalPos="491.30" arrivalSpeed="13.41" duration="161.00" routeLength="1993.50" waitingTime="0.00" waitingCount="0" stopTime="0.00" timeLoss="12.68" rerouteNo="0" devices="tripinfo_f_0_1.0" vType="DEFAULT_VEHTYPE" speedFactor="0.97" vaporized=""/>
    <tripinfo id="f_1_31.1" depart="10.00" departLane="H2H3_0" departPos="5.10" departSpeed="0.00" departDelay="0.00" arrival="166.00" arrivalLane="H5H6_0" arrivalPos="492.80" arrivalSpeed="13.14" duration="156.00" routeLength="1994.90" waitingTime="0.00" waitingCount="0" stopTime="0.00" timeLoss="9.74" rerouteNo="0" devices="tripinfo_f_1_31.1" vType="DEFAULT_VEHTYPE" speedFactor="0.98" vaporized=""/>
    <tripinfo id="f_1_31.2" depart="13.00" departLane="H2H3_0" departPos="5.10" departSpeed="0.00" departDelay="1.00" arrival="168.00" arrivalLane="H5H6_0" arrivalPos="492.80" arrivalSpeed="12.62" duration="155.00" routeLength="1994.90" waitingTime="0.00" waitingCount="0" stopTime="0.00" timeLoss="11.42" rerouteNo="0" devices="tripinfo_f_1_31.2" vType="DEFAULT_VEHTYPE" speedFactor="1.00" vaporized=""/>
    <tripinfo id="f_0_16.0" depart="2.00" departLane="A5B5_0" departPos="5.10" departSpeed="0.00" departDelay="0.00" arrival="169.00" arrivalLane="D5E5_0" arrivalPos="492.80" arrivalSpeed="12.79" duration="167.00" routeLength="1994.90" waitingTime="0.00" waitingCount="0" stopTime="0.00" timeLoss="13.55" rerouteNo="0" devices="tripinfo_f_0_16.0" vType="DEFAULT_VEHTYPE" speedFactor="0.94" vaporized=""/>
    <tripinfo id="f_0_11.0" depart="0.00" departLane="J8I8_0" departPos="5.10" departSpeed="0.00" departDelay="0.00" arrival="170.00" arrivalLane="G8F8_0" arrivalPos="492.80" arrivalSpeed="13.62" duration="170.00" routeLength="1994.90" waitingTime="9.00" waitingCount="1" stopTime="0.00" timeLoss="27.66" rerouteNo="0" devices="tripinfo_f_0_11.0" vType="DEFAULT_VEHTYPE" speedFactor="1.01" vaporized=""/>
    <tripinfo id="f_1_30.1" depart="3.00" departLane="H7H6_0" departPos="5.10" departSpeed="0.00" departDelay="2.00" arrival="170.00" arrivalLane="H4H3_0" arrivalPos="491.30" arrivalSpeed="12.24" duration="167.00" routeLength="1993.50" waitingTime="0.00" waitingCount="0" stopTime="0.00" timeLoss="11.71" rerouteNo="0" devices="tripinfo_f_1_30.1" vType="DEFAULT_VEHTYPE" speedFactor="0.93" vaporized=""/>
    <tripinfo id="f_0_5.0" depart="3.00" departLane="C6C7_0" departPos="5.10" departSpeed="0.00" departDelay="0.00" arrival="171.00" arrivalLane="C9C10_0" arrivalPos="491.30" arrivalSpeed="11.64" duration="168.00" routeLength="1993.50" waitingTime="0.00" waitingCount="0" stopTime="0.00" timeLoss="11.33" rerouteNo="0" devices="tripinfo_f_0_5.0" vType="DEFAULT_VEHTYPE" speedFactor="0.92" vaporized=""/>
    <tripinfo id="f_0_16.1" depart="5.00" departLane="A5B5_0" departPos="5.10" departSpeed="0.00" departDelay="0.00" arrival="171.00" arrivalLane="D5E5_0" arrivalPos="492.80" arrivalSpeed="14.10" duration="166.00" routeLength="1994.90" waitingTime="0.00" waitingCount="0" stopTime="0.00" timeLoss="35.29" rerouteNo="0" devices="tripinfo_f_0_16.1" vType="DEFAULT_VEHTYPE" speedFactor="1.10" vaporized=""/>
    <tripinfo id="f_0_14.2" depart="10.00" departLane="H11H10_0" departPos="5.10" departSpeed="0.00" departDelay="0.00" arrival="171.00" arrivalLane="H8H7_0" arrivalPos="492.80" arrivalSpeed="12.28" duration="161.00" routeLength="1994.90" waitingTime="0.00" waitingCount="0" stopTime="0.00" timeLoss="9.73" rerouteNo="0" devices="tripinfo_f_0_14.2" vType="DEFAULT_VEHTYPE" speedFactor="0.96" vaporized=""/>
    <tripinfo id="f_0_14.3" depart="13.00" departLane="H11H10_0" departPos="5.10" departSpeed="0.00" departDelay="2.00" arrival="172.00" arrivalLane="H8H7_0" arrivalPos="492.80" arrivalSpeed="13.86" duration="159.00" routeLength="1994.90" waitingTime="0.00" waitingCount="0" stopTime="0.00" timeLoss="14.81" rerouteNo="0" devices="tripinfo_f_0_14.3" vType="DEFAULT_VEHTYPE" speedFactor="1.00" vaporized=""/>
    <tripinfo id="f_0_22.0" depart="32.00" departLane="D7D6_0" departPos="5.10" departSpeed="0.00" departDelay="0.00" arrival="172.00" arrivalLane="D4D3_0" arrivalPos="491.30" arrivalSpeed="14.05" duration="140.00" routeLength="1993.50" waitingTime="0.00" waitingCount="0" stopTime="0.00" timeLoss="8.96" rerouteNo="0" devices="tripinfo_f_0_22.0" vType="DEFAULT_VEHTYPE" speedFactor="1.10" vaporized=""/>
    <tripinfo id="f_0_5.1" depart="7.00" departLane="C6C7_0" departPos="5.10" departSpeed="0.00" departDelay="0.00" arrival="173.00" arrivalLane="C9C10_0" arrivalPos="491.30" arrivalSpeed="14.10" duration="166.00" routeLength="1993.50" waitingTime="0.00" waitingCount="0" stopTime="0.00" timeLoss="27.85" rerouteNo="0" devices="tripinfo_f_0_5.1" vType="DEFAULT_VEHTYPE" speedFactor="1.04" vaporized=""/>
    <tripinfo id="f_0_11.1" depart="9.00" departLane="J8I8_0" departPos="5.10" departSpeed="0.00" departDelay="0.00" arrival="173.00" arrivalLane="G8F8_0" arrivalPos="492.80" arrivalSpeed="12.62" duration="164.00" routeLength="1994.90" waitingTime="0.00" waitingCount="0" stopTime="0.00" timeLoss="17.74" rerouteNo="0" devices="tripinfo_f_0_11.1" vType="DEFAULT_VEHTYPE" speedFactor="0.99" vaporized=""/>
    <tripinfo id="f_0_5.2" depart="10.00" departLane="C6C7_0" departPos="5.10" departSpeed="0.00" departDelay="1.00" arrival="174.00" arrivalLane="C9C10_0" arrivalPos="491.30" arrivalSpeed="15.05" duration="164.00" routeLength="1993.50" waitingTime="0.00" waitingCount="0" stopTime="0.00" timeLoss="35.77" rerouteNo="0" devices="tripinfo_f_0_5.2" vType="DEFAULT_VEHTYPE" speedFactor="1.12" vaporized=""/>
    <tripinfo id="f_0_11.2" depart="12.00" departLane="J8I8_0" departPos="5.10" departSpeed="0.00" departDelay="2.00" arrival="174.00" arrivalLane="G8F8_0" arrivalPos="492.80" arrivalSpeed="14.51" duration="162.00" routeLength="1994.90" waitingTime="0.00" waitingCount="0" stopTime="0.00" timeLoss="25.75" rerouteNo="0" devices="tripinfo_f_0_11.2" vType="DEFAULT_VEHTYPE" speedFactor="1.06" vaporized=""/>
    <tripinfo id="f_0_14.4" depart="16.00" departLane="H11H10_0" departPos="5.10" departSpeed="0.00" departDelay="1.00" arrival="174.00" arrivalLane="H8H7_0" arrivalPos="492.80" arrivalSpeed="13.09" duration="158.00" routeLength="1994.90" waitingTime="0.00" waitingCount="0" stopTime="0.00" timeLoss="18.68" rerouteNo="0" devices="tripinfo_f_0_14.4" vType="DEFAULT_VEHTYPE" speedFactor="1.03" vaporized=""/>
    <tripinfo id="f_0_8.0" depart="3.00" departLane="E9F9_0" departPos="5.10" departSpeed="0.00" departDelay="0.00" arrival="175.00" arrivalLane="H9I9_0" arrivalPos="491.30" arrivalSpeed="13.13" duration="172.00" routeLength="1993.50" waitingTime="5.00" waitingCount="1" stopTime="0.00" timeLoss="20.70" rerouteNo="0" devices="tripinfo_f_0_8.0" vType="DEFAULT_VEHTYPE" speedFactor="0.95" vaporized=""/>
    <tripinfo id="f_0_5.3" depart="13.00" departLane="C6C7_0" departPos="5.10" departSpeed="0.00" departDelay="3.00" arrival="176.00" arrivalLane="C9C10_0" arrivalPos="491.30" arrivalSpeed="13.50" duration="163.00" routeLength="1993.50" waitingTime="0.00" waitingCount="0" stopTime="0.00" timeLoss="22.55" rerouteNo="0" devices="tripinfo_f_0_5.3" vType="DEFAULT_VEHTYPE" speedFactor="1.02" vaporized=""/>
    <tripinfo id="f_0_14.5" depart="19.00" departLane="H11H10_0" departPos="5.10" departSpeed="0.00" departDelay="3.00" arrival="176.00" arrivalLane="H8H7_0" arrivalPos="492.80" arrivalSpeed="13.65" duration="157.00" routeLength="1994.90" waitingTime="0.00" waitingCount="0" stopTime="0.00" timeLoss="13.95" rerouteNo="0" devices="tripinfo_f_0_14.5" vType="DEFAULT_VEHTYPE" speedFactor="1.01" vaporized=""/>
    <tripinfo id="f_0_22.1" depart="36.00" departLane="D7D6_0" departPos="5.10" departSpeed="0.00" departDelay="0.00" arrival="176.00" arrivalLane="D4D3_0" arrivalPos="491.30" arrivalSpeed="14.60" duration="140.00" routeLength="1993.50" waitingTime="0.00" waitingCount="0" stopTime="0.00" timeLoss="8.86" rerouteNo="0" devices="tripinfo_f_0_22.1" vType="DEFAULT_VEHTYPE" speedFactor="1.10" vaporized=""/>
    <tripinfo id="f_0_11.3" depart="15.00" departLane="J8I8_0" departPos="5.10" departSpeed="0.00" departDelay="4.00" arrival="177.00" arrivalLane="G8F8_0" arrivalPos="492.80" arrivalSpeed="13.84" duration="162.00" routeLength="1994.90" waitingTime="4.00" waitingCount="1" stopTime="0.00" timeLoss="22.94" rerouteNo="0" devices="tripinfo_f_0_11.3" vType="DEFAULT_VEHTYPE" speedFactor="1.03" vaporized=""/>
    <tripinfo id="f_0_20.2" depart="9.00" departLane="C7C6_0" departPos="5.10" departSpeed="0.00" departDelay="0.00" arrival="178.00" arrivalLane="C4C3_0" arrivalPos="491.30" arrivalSpeed="11.98" duration="169.00" routeLength="1993.50" waitingTime="0.00" waitingCount="0" stopTime="0.00" timeLoss="10.62" rerouteNo="0" devices="tripinfo_f_0_20.2" vType="DEFAULT_VEHTYPE" speedFactor="0.91" vaporized=""/>
    <tripinfo id="f_0_5.4" depart="16.00" departLane="C6C7_0" departPos="5.10" departSpeed="0.00" departDelay="5.00" arrival="178.00" arrivalLane="C9C10_0" arrivalPos="491.30" arrivalSpeed="14.95" duration="162.00" routeLength="1993.50" waitingTime="0.00" waitingCount="0" stopTime="0.00" timeLoss="29.44" rerouteNo="0" devices="tripinfo_f_0_5.4" vType="DEFAULT_VEHTYPE" speedFactor="1.09" vaporized=""/>
    <tripinfo id="f_0_4.1" depart="3.00" departLane="C11C10_0" departPos="5.10" departSpeed="0.00" departDelay="0.00" arrival="179.00" arrivalLane="C8C7_0" arrivalPos="492.80" arrivalSpeed="11.40" duration="176.00" routeLength="1994.90" waitingTime="0.00" waitingCount="0" stopTime="0.00" timeLoss="11.42" rerouteNo="0" devices="tripinfo_f_0_4.1" vType="DEFAULT_VEHTYPE" speedFactor="0.87" vaporized=""/>
    <tripinfo id="f_1_30.2" depart="6.00" departLane="H7H6_0" departPos="5.10" departSpeed="0.00" departDelay="4.00" arrival="180.00" arrivalLane="H4H3_0" arrivalPos="491.30" arrivalSpeed="12.12" duration="174.00" routeLength="1993.50" waitingTime="0.00" waitingCount="0" stopTime="0.00" timeLoss="11.91" rerouteNo="0" devices="tripinfo_f_1_30.2" vType="DEFAULT_VEHTYPE" speedFactor="0.89" vaporized=""/>
    <tripinfo id="f_0_5.5" depart="19.00" departLane="C6C7_0" departPos="5.10" departSpeed="0.00" departDelay="6.00" arrival="180.00" arrivalLane="C9C10_0" arrivalPos="491.30" arrivalSpeed="13.71" duration="161.00" routeLength="1993.50" waitingTime="0.00" waitingCount="0" stopTime="0.00" timeLoss="17.75" rerouteNo="0" devices="tripinfo_f_0_5.5" vType="DEFAULT_VEHTYPE" speedFactor="1.01" vaporized=""/>
    <tripinfo id="f_0_20.3" depart="15.00" departLane="C7C6_0" departPos="5.10" departSpeed="0.00" departDelay="0.00" arrival="180.00" arrivalLane="C4C3_0" arrivalPos="491.30" arrivalSpeed="12.94" duration="165.00" routeLength="1993.50" waitingTime="0.00" waitingCount="0" stopTime="0.00" timeLoss="14.99" rerouteNo="0" devices="tripinfo_f_0_20.3" vType="DEFAULT_VEHTYPE" speedFactor="0.96" vaporized=""/>
    <tripinfo id="f_0_10.0" depart="1.00" departLane="E8F8_0" departPos="5.10" departSpeed="0.00" departDelay="0.00" arrival="181.00" arrivalLane="H8I8_0" arrivalPos="491.30" arrivalSpeed="13.01" duration="180.00" routeLength="1993.50" waitingTime="9.00" waitingCount="1" stopTime="0.00" timeLoss="26.81" rerouteNo="0" devices="tripinfo_f_0_10.0" vType="DEFAULT_VEHTYPE" speedFactor="0.94" vaporized=""/>
    <tripinfo id="f_0_13.0" depart="1.00" departLane="G6G7_0" departPos="5.10" departSpeed="0.00" departDelay="0.00" arrival="181.00" arrivalLane="G9G10_0" arrivalPos="491.30" arrivalSpeed="11.81" duration="180.00" routeLength="1993.50" waitingTime="0.00" waitingCount="0" stopTime="0.00" timeLoss="11.82" rerouteNo="0" devices="tripinfo_f_0_13.0" vType="DEFAULT_VEHTYPE" speedFactor="0.86" vaporized=""/>
    <tripinfo id="f_0_4.2" depart="8.00" departLane="C11C10_0" departPos="5.10" departSpeed="0.00" departDelay="0.00" arrival="181.00" arrivalLane="C8C7_0" arrivalPos="492.80" arrivalSpeed="13.61" duration="173.00" routeLength="1994.90" waitingTime="0.00" waitingCount="0" stopTime="0.00" timeLoss="41.64" rerouteNo="0" devices="tripinfo_f_0_4.2" vType="DEFAULT_VEHTYPE" speedFactor="1.10" vaporized=""/>
    <tripinfo id="f_0_15.2" depart="10.00" departLane="H6H7_0" departPos="5.10" departSpeed="0.00" departDelay="2.00" arrival="181.00" arrivalLane="H9H10_0" arrivalPos="491.30" arrivalSpeed="11.70" duration="171.00" routeLength="1993.50" waitingTime="0.00" waitingCount="0" stopTime="0.00" timeLoss="10.95" rerouteNo="0" devices="tripinfo_f_0_15.2" vType="DEFAULT_VEHTYPE" speedFactor="0.90" vaporized=""/>
    <tripinfo id="f_0_5.6" depart="22.00" departLane="C6C7_0" departPos="5.10" departSpeed="0.00" departDelay="4.00" arrival="181.00" arrivalLane="C9C10_0" arrivalPos="491.30" arrivalSpeed="14.22" duration="159.00" routeLength="1993.50" waitingTime="0.00" waitingCount="0" stopTime="0.00" timeLoss="23.60" rerouteNo="0" devices="tripinfo_f_0_5.6" vType="DEFAULT_VEHTYPE" speedFactor="1.06" vaporized=""/>
    <tripinfo id="f_1_30.3" depart="9.00" departLane="H7H6_0" departPos="5.10" departSpeed="0.00" departDelay="6.00" arrival="182.00" arrivalLane="H4H3_0" arrivalPos="491.30" arrivalSpeed="12.81" duration="173.00" routeLength="1993.50" waitingTime="0.00" waitingCount="0" stopTime="0.00" timeLoss="29.35" rerouteNo="0" devices="tripinfo_f_1_30.3" vType="DEFAULT_VEHTYPE" speedFactor="1.01" vaporized=""/>
    <tripinfo id="f_0_20.4" depart="18.00" departLane="C7C6_0" departPos="5.10" departSpeed="0.00" departDelay="0.00" arrival="182.00" arrivalLane="C4C3_0" arrivalPos="491.30" arrivalSpeed="13.68" duration="164.00" routeLength="1993.50" waitingTime="0.00" waitingCount="0" stopTime="0.00" timeLoss="24.17" rerouteNo="0" devices="tripinfo_f_0_20.4" vType="DEFAULT_VEHTYPE" speedFactor="1.03" vaporized=""/>
    <tripinfo id="f_0_13.1" depart="4.00" departLane="G6G7_0" departPos="5.10" departSpeed="0.00" departDelay="1.00" arrival="183.00" arrivalLane="G9G10_0" arrivalPos="491.30" arrivalSpeed="12.74" duration="179.00" routeLength="1993.50" waitingTime="0.00" waitingCount="0" stopTime="0.00" timeLoss="23.96" rerouteNo="0" devices="tripinfo_f_0_13.1" vType="DEFAULT_VEHTYPE" speedFactor="0.93" vaporized=""/>
    <tripinfo id="f_1_30.4" depart="12.00" departLane="H7H6_0" departPos="5.10" departSpeed="0.00" departDelay="5.00" arrival="183.00" arrivalLane="H4H3_0" arrivalPos="491.30" arrivalSpeed="14.72" duration="171.00" routeLength="1993.50" waitingTime="0.00" waitingCount="0" stopTime="0.00" timeLoss="47.94" rerouteNo="0" devices="tripinfo_f_1_30.4" vType="DEFAULT_VEHTYPE" speedFactor="1.17" vaporized=""/>
    <tripinfo id="f_0_15.3" depart="13.00" departLane="H6H7_0" departPos="5.10" departSpeed="0.00" departDelay="4.00" arrival="183.00" arrivalLane="H9H10_0" arrivalPos="491.30" arrivalSpeed="12.52" duration="170.00" routeLength="1993.50" waitingTime="0.00" waitingCount="0" stopTime="0.00" timeLoss="16.23" rerouteNo="0" devices="tripinfo_f_0_15.3" vType="DEFAULT_VEHTYPE" speedFactor="0.94" vaporized=""/>
    <tripinfo id="f_0_4.3" depart="13.00" departLane="C11C10_0" departPos="5.10" departSpeed="0.00" departDelay="0.00" arrival="183.00" arrivalLane="C8C7_0" arrivalPos="492.80" arrivalSpeed="13.54" duration="170.00" routeLength="1994.90" waitingTime="0.00" waitingCount="0" stopTime="0.00" timeLoss="31.71" rerouteNo="0" devices="tripinfo_f_0_4.3" vType="DEFAULT_VEHTYPE" speedFactor="1.04" vaporized=""/>
    <tripinfo id="f_0_14.6" depart="22.00" departLane="H11H10_0" departPos="5.10" departSpeed="0.00" departDelay="3.00" arrival="183.00" arrivalLane="H8H7_0" arrivalPos="492.80" arrivalSpeed="12.12" duration="161.00" routeLength="1994.90" waitingTime="0.00" waitingCount="0" stopTime="0.00" timeLoss="10.58" rerouteNo="0" devices="tripinfo_f_0_14.6" vType="DEFAULT_VEHTYPE" speedFactor="0.96" vaporized=""/>
    <tripinfo id="f_0_5.7" depart="25.00" departLane="C6C7_0" departPos="5.10" departSpeed="0.00" departDelay="5.00" arrival="183.00" arrivalLane="C9C10_0" arrivalPos="491.30" arrivalSpeed="13.21" duration="158.00" routeLength="1993.50" waitingTime="0.00" waitingCount="0" stopTime="0.00" timeLoss="15.78" rerouteNo="0" devices="tripinfo_f_0_5.7" vType="DEFAULT_VEHTYPE" speedFactor="1.01" vaporized=""/>
    <tripinfo id="f_0_20.5" depart="21.00" departLane="C7C6_0" departPos="5.10" departSpeed="0.00" departDelay="1.00" arrival="183.00" arrivalLane="C4C3_0" arrivalPos="491.30" arrivalSpeed="13.28" duration="162.00" routeLength="1993.50" waitingTime="0.00" waitingCount="0" stopTime="0.00" timeLoss="18.97" rerouteNo="0" devices="tripinfo_f_0_20.5" vType="DEFAULT_VEHTYPE" speedFactor="1.00" vaporized=""/>
    <tripinfo id="f_0_13.2" depart="7.00" departLane="G6G7_0" departPos="5.10" departSpeed="0.00" departDelay="1.00" arrival="184.00" arrivalLane="G9G10_0" arrivalPos="491.30" arrivalSpeed="14.17" duration="177.00" routeLength="1993.50" waitingTime="0.00" waitingCount="0" stopTime="0.00" timeLoss="45.26" rerouteNo="0" devices="tripinfo_f_0_13.2" vType="DEFAULT_VEHTYPE" speedFactor="1.09" vaporized=""/>
    <tripinfo id="f_0_14.7" depart="25.00" departLane="H11H10_0" departPos="5.10" departSpeed="0.00" departDelay="2.00" arrival="184.00" arrivalLane="H8H7_0" arrivalPos="492.80" arrivalSpeed="15.24" duration="159.00" routeLength="1994.90" waitingTime="0.00" waitingCount="0" stopTime="0.00" timeLoss="36.95" rerouteNo="0" devices="tripinfo_f_0_14.7" vType="DEFAULT_VEHTYPE" speedFactor="1.18" vaporized=""/>
    <tripinfo id="f_1_28.0" depart="0.00" departLane="G7G6_0" departPos="5.10" departSpeed="0.00" departDelay="0.00" arrival="185.00" arrivalLane="G4G3_0" arrivalPos="491.30" arrivalSpeed="10.64" duration="185.00" routeLength="1993.50" waitingTime="0.00" waitingCount="0" stopTime="0.00" timeLoss="11.41" rerouteNo="0" devices="tripinfo_f_1_28.0" vType="DEFAULT_VEHTYPE" speedFactor="0.83" vaporized=""/>
    <tripinfo id="f_0_23.3" depart="9.00" departLane="D2D3_0" departPos="5.10" departSpeed="0.00" departDelay="2.00" arrival="185.00" arrivalLane="D5D6_0" arrivalPos="492.80" arrivalSpeed="11.19" duration="176.00" routeLength="1994.90" waitingTime="0.00" waitingCount="0" stopTime="0.00" timeLoss="11.32" rerouteNo="0" devices="tripinfo_f_0_23.3" vType="DEFAULT_VEHTYPE" speedFactor="0.88" vaporized=""/>
    <tripinfo id="f_1_30.5" depart="15.00" departLane="H7H6_0" departPos="5.10" departSpeed="0.00" departDelay="5.00" arrival="185.00" arrivalLane="H4H3_0" arrivalPos="491.30" arrivalSpeed="14.00" duration="170.00" routeLength="1993.50" waitingTime="0.00" waitingCount="0" stopTime="0.00" timeLoss="30.32" rerouteNo="0" devices="tripinfo_f_1_30.5" vType="DEFAULT_VEHTYPE" speedFactor="1.03" vaporized=""/>
    <tripinfo id="f_0_4.4" depart="19.00" departLane="C11C10_0" departPos="5.10" departSpeed="0.00" departDelay="0.00" arrival="185.00" arrivalLane="C8C7_0" arrivalPos="492.80" arrivalSpeed="13.20" duration="166.00" routeLength="1994.90" waitingTime="0.00" waitingCount="0" stopTime="0.00" timeLoss="22.83" rerouteNo="0" devices="tripinfo_f_0_4.4" vType="DEFAULT_VEHTYPE" speedFactor="1.01" vaporized=""/>
    <tripinfo id="f_0_5.8" depart="28.00" departLane="C6C7_0" departPos="5.10" departSpeed="0.00" departDelay="5.00" arrival="185.00" arrivalLane="C9C10_0" arrivalPos="491.30" arrivalSpeed="15.29" duration="157.00" routeLength="1993.50" waitingTime="0.00" waitingCount="0" stopTime="0.00" timeLoss="28.51" rerouteNo="0" devices="tripinfo_f_0_5.8" vType="DEFAULT_VEHTYPE" speedFactor="1.12" vaporized=""/>
    <tripinfo id="f_0_21.0" depart="32.00" departLane="C2C3_0" departPos="5.10" departSpeed="0.00" departDelay="0.00" arrival="185.00" arrivalLane="C5C6_0" arrivalPos="492.80" arrivalSpeed="13.07" duration="153.00" routeLength="1994.90" waitingTime="0.00" waitingCount="0" stopTime="0.00" timeLoss="9.61" rerouteNo="0" devices="tripinfo_f_0_21.0" vType="DEFAULT_VEHTYPE" speedFactor="1.00" vaporized=""/>
    <tripinfo id="f_1_28.1" depart="3.00" departLane="G7G6_0" departPos="5.10" departSpeed="0.00" departDelay="2.00" arrival="186.00" arrivalLane="G4G3_0" arrivalPos="491.30" arrivalSpeed="12.93" duration="183.00" routeLength="1993.50" waitingTime="0.00" waitingCount="0" stopTime="0.00" timeLoss="38.00" rerouteNo="0" devices="tripinfo_f_1_28.1" vType="DEFAULT_VEHTYPE" speedFactor="0.99" vaporized=""/>
    <tripinfo id="f_0_13.3" depart="10.00" departLane="G6G7_0" departPos="5.10" departSpeed="0.00" departDelay="2.00" arrival="186.00" arrivalLane="G9G10_0" arrivalPos="491.30" arrivalSpeed="13.77" duration="176.00" routeLength="1993.50" waitingTime="0.00" waitingCount="0" stopTime="0.00" timeLoss="31.30" rerouteNo="0" devices="tripinfo_f_0_13.3" vType="DEFAULT_VEHTYPE" speedFactor="1.00" vaporized=""/>
    <tripinfo id="f_0_23.4" depart="12.00" departLane="D2D3_0" departPos="5.10" departSpeed="0.00" departDelay="4.00" arrival="186.00" arrivalLane="D5D6_0" arrivalPos="492.80" arrivalSpeed="11.69" duration="174.00" routeLength="1994.90" waitingTime="0.00" waitingCount="0" stopTime="0.00" timeLoss="48.17" rerouteNo="0" devices="tripinfo_f_0_23.4" vType="DEFAULT_VEHTYPE" speedFactor="1.14" vaporized=""/>