<?xml version="1.0" encoding="UTF-8"?>

<!-- generated on 2024-08-22 13:20:09 by Eclipse SUMO sumo Version 1.17.0
<configuration xmlns:xsi="http://www.w3.org/2001/XMLSchema-instance" xsi:noNamespaceSchemaLocation="http://sumo.dlr.de/xsd/sumoConfiguration.xsd">

    <input>
        <net-file value="double_no_lights.net.xml"/>
        <route-files value="double_1.rou.xml"/>
    </input>

    <output>
        <summary-output value="control_summaries\summary_double_no_lights_1.xml"/>
        <tripinfo-output value="control_summaries\tripinfos_double_no_lights_1.xml"/>
    </output>

    <processing>
        <time-to-teleport value="-1"/>
    </processing>

    <traci_server>
        <remote-port value="58001"/>
    </traci_server>

</configuration>
-->

<tripinfos xmlns:xsi="http://www.w3.org/2001/XMLSchema-instance" xsi:noNamespaceSchemaLocation="http://sumo.dlr.de/xsd/tripinfo_file.xsd">
    <tripinfo id="f_0_8.0" depart="0.00" departLane="G5G6_0" departPos="5.10" departSpeed="0.00" departDelay="0.00" arrival="109.00" arrivalLane="G7G8_0" arrivalPos="491.30" arrivalSpeed="14.39" duration="109.00" routeLength="1493.50" waitingTime="0.00" waitingCount="0" stopTime="0.00" timeLoss="7.32" rerouteNo="0" devices="tripinfo_f_0_8.0" vType="DEFAULT_VEHTYPE" speedFactor="1.06" vaporized=""/>
    <tripinfo id="f_0_16.0" depart="1.00" departLane="D2D3_0" departPos="5.10" departSpeed="0.00" departDelay="0.00" arrival="109.00" arrivalLane="D4D5_0" arrivalPos="492.80" arrivalSpeed="13.74" duration="108.00" routeLength="1494.90" waitingTime="0.00" waitingCount="0" stopTime="0.00" timeLoss="8.36" rerouteNo="0" devices="tripinfo_f_0_16.0" vType="DEFAULT_VEHTYPE" speedFactor="1.08" vaporized=""/>
    <tripinfo id="f_0_8.1" depart="3.00" departLane="G5G6_0" departPos="5.10" departSpeed="0.00" departDelay="0.00" arrival="114.00" arrivalLane="G7G8_0" arrivalPos="491.30" arrivalSpeed="13.86" duration="111.00" routeLength="1493.50" waitingTime="0.00" waitingCount="0" stopTime="0.00" timeLoss="7.54" rerouteNo="0" devices="tripinfo_f_0_8.1" vType="DEFAULT_VEHTYPE" speedFactor="1.05" vaporized=""/>
    <tripinfo id="f_0_9.0" depart="2.00" departLane="G9G8_0" departPos="5.10" departSpeed="0.00" departDelay="0.00" arrival="115.00" arrivalLane="G7G6_0" arrivalPos="492.80" arrivalSpeed="13.74" duration="113.00" routeLength="1494.90" waitingTime="0.00" waitingCount="0" stopTime="0.00" timeLoss="7.62" rerouteNo="0" devices="tripinfo_f_0_9.0" vType="DEFAULT_VEHTYPE" speedFactor="1.03" vaporized=""/>
    <tripinfo id="f_0_8.2" depart="6.00" departLane="G5G6_0" departPos="5.10" departSpeed="0.00" departDelay="0.00" arrival="120.00" arrivalLane="G7G8_0" arrivalPos="491.30" arrivalSpeed="13.90" duration="114.00" routeLength="1493.50" waitingTime="0.00" waitingCount="0" stopTime="0.00" timeLoss="8.69" rerouteNo="0" devices="tripinfo_f_0_8.2" vType="DEFAULT_VEHTYPE" speedFactor="1.03" vaporized=""/>
    <tripinfo id="f_0_17.0" depart="0.00" departLane="D6D5_0" departPos="5.10" departSpeed="0.00" departDelay="0.00" arrival="123.00" arrivalLane="D4D3_0" arrivalPos="491.30" arrivalSpeed="12.93" duration="123.00" routeLength="1493.50" waitingTime="0.00" waitingCount="0" stopTime="0.00" timeLoss="7.91" rerouteNo="0" devices="tripinfo_f_0_17.0" vType="DEFAULT_VEHTYPE" speedFactor="0.94" vaporized=""/>
    <tripinfo id="f_0_8.3" depart="9.00" departLane="G5G6_0" departPos="5.10" departSpeed="0.00" departDelay="2.00" arrival="134.00" arrivalLane="G7G8_0" arrivalPos="491.30" arrivalSpeed="11.62" duration="125.00" routeLength="1493.50" waitingTime="0.00" waitingCount="0" stopTime="0.00" timeLoss="8.36" rerouteNo="0" devices="tripinfo_f_0_8.3" vType="DEFAULT_VEHTYPE" speedFactor="0.93" vaporized=""/>
    <tripinfo id="f_0_17.1" depart="4.00" departLane="D6D5_0" departPos="5.10" departSpeed="0.00" departDelay="0.00" arrival="135.00" arrivalLane="D4D3_0" arrivalPos="491.30" arrivalSpeed="11.55" duration="131.00" routeLength="1493.50" waitingTime="0.00" waitingCount="0" stopTime="0.00" timeLoss="9.46" rerouteNo="0" devices="tripinfo_f_0_17.1" vType="DEFAULT_VEHTYPE" speedFactor="0.89" vaporized=""/>
    <tripinfo id="f_0_8.4" depart="12.00" departLane="G5G6_0" departPos="5.10" departSpeed="0.00" departDelay="2.00" arrival="135.00" arrivalLane="G7G8_0" arrivalPos="491.30" arrivalSpeed="13.05" duration="123.00" routeLength="1493.50" waitingTime="0.00" waitingCount="0" stopTime="0.00" timeLoss="17.39" rerouteNo="0" devices="tripinfo_f_0_8.4" vType="DEFAULT_VEHTYPE" speedFactor="1.02" vaporized=""/>
    <tripinfo id="f_0_17.2" depart="7.00" departLane="D6D5_0" departPos="5.10" departSpeed="0.00" departDelay="2.00" arrival="137.00" arrivalLane="D4D3_0" arrivalPos="491.30" arrivalSpeed="14.66" duration="130.00" routeLength="1493.50" waitingTime="0.00" waitingCount="0" stopTime="0.00" timeLoss="30.91" rerouteNo="0" devices="tripinfo_f_0_17.2" vType="DEFAULT_VEHTYPE" speedFactor="1.09" vaporized=""/>
    <tripinfo id="f_0_17.3" depart="12.00" departLane="D6D5_0" departPos="5.10" departSpeed="0.00" departDelay="0.00" arrival="139.00" arrivalLane="D4D3_0" arrivalPos="491.30" arrivalSpeed="14.80" duration="127.00" routeLength="1493.50" waitingTime="0.00" waitingCount="0" stopTime="0.00" timeLoss="31.13" rerouteNo="0" devices="tripinfo_f_0_17.3" vType="DEFAULT_VEHTYPE" speedFactor="1.13" vaporized=""/>
    <tripinfo id="f_0_17.4" depart="22.00" departLane="D6D5_0" departPos="5.10" departSpeed="0.00" departDelay="0.00" arrival="140.00" arrivalLane="D4D3_0" arrivalPos="491.30" arrivalSpeed="15.75" duration="118.00" routeLength="1493.50" waitingTime="0.00" waitingCount="0" stopTime="0.00" timeLoss="26.71" rerouteNo="0" devices="tripinfo_f_0_17.4" vType="DEFAULT_VEHTYPE" speedFactor="1.18" vaporized=""/>
    <tripinfo id="f_0_9.1" depart="5.00" departLane="G9G8_0" departPos="5.10" departSpeed="0.00" departDelay="0.00" arrival="141.00" arrivalLane="G7G6_0" arrivalPos="492.80" arrivalSpeed="11.12" duration="136.00" routeLength="1494.90" waitingTime="0.00" waitingCount="0" stopTime="0.00" timeLoss="9.82" rerouteNo="0" devices="tripinfo_f_0_9.1" vType="DEFAULT_VEHTYPE" speedFactor="0.86" vaporized=""/>
    <tripinfo id="f_0_9.2" depart="8.00" departLane="G9G8_0" departPos="5.10" departSpeed="0.00" departDelay="2.00" arrival="142.00" arrivalLane="G7G6_0" arrivalPos="492.80" arrivalSpeed="14.34" duration="134.00" routeLength="1494.90" waitingTime="0.00" waitingCount="0" stopTime="0.00" timeLoss="31.17" rerouteNo="0" devices="tripinfo_f_0_9.2" vType="DEFAULT_VEHTYPE" speedFactor="1.05" vaporized=""/>
    <tripinfo id="f_0_17.5" depart="25.00" departLane="D6D5_0" departPos="5.10" departSpeed="0.00" departDelay="2.00" arrival="142.00" arrivalLane="D4D3_0" arrivalPos="491.30" arrivalSpeed="14.77" duration="117.00" routeLength="1493.50" waitingTime="0.00" waitingCount="0" stopTime="0.00" timeLoss="19.18" rerouteNo="0" devices="tripinfo_f_0_17.5" vType="DEFAULT_VEHTYPE" speedFactor="1.10" vaporized=""/>
    <tripinfo id="f_0_16.1" depart="4.00" departLane="D2D3_0" departPos="5.10" departSpeed="0.00" departDelay="2.00" arrival="144.00" arrivalLane="D4D5_0" arrivalPos="492.80" arrivalSpeed="10.79" duration="140.00" routeLength="1494.90" waitingTime="0.00" waitingCount="0" stopTime="0.00" timeLoss="9.88" rerouteNo="0" devices="tripinfo_f_0_16.1" vType="DEFAULT_VEHTYPE" speedFactor="0.83" vaporized=""/>
    <tripinfo id="f_0_9.3" depart="11.00" departLane="G9G8_0" departPos="5.10" departSpeed="0.00" departDelay="1.00" arrival="144.00" arrivalLane="G7G6_0" arrivalPos="492.80" arrivalSpeed="13.52" duration="133.00" routeLength="1494.90" waitingTime="0.00" waitingCount="0" stopTime="0.00" timeLoss="26.19" rerouteNo="0" devices="tripinfo_f_0_9.3" vType="DEFAULT_VEHTYPE" speedFactor="1.01" vaporized=""/>
    <tripinfo id="f_0_16.2" depart="7.00" departLane="D2D3_0" departPos="5.10" departSpeed="0.00" departDelay="0.00" arrival="146.00" arrivalLane="D4D5_0" arrivalPos="492.80" arrivalSpeed="11.42" duration="139.00" routeLength="1494.90" waitingTime="0.00" waitingCount="0" stopTime="0.00" timeLoss="15.66" rerouteNo="0" devices="tripinfo_f_0_16.2" vType="DEFAULT_VEHTYPE" speedFactor="0.88" vaporized=""/>
    <tripinfo id="f_0_9.4" depart="14.00" departLane="G9G8_0" departPos="5.10" departSpeed="0.00" departDelay="2.00" arrival="146.00" arrivalLane="G7G6_0" arrivalPos="492.80" arrivalSpeed="12.31" duration="132.00" routeLength="1494.90" waitingTime="0.00" waitingCount="0" stopTime="0.00" timeLoss="14.41" rerouteNo="0" devices="tripinfo_f_0_9.4" vType="DEFAULT_VEHTYPE" speedFactor="0.92" vaporized=""/>
    <tripinfo id="f_0_16.3" depart="10.00" departLane="D2D3_0" departPos="5.10" departSpeed="0.00" departDelay="1.00" arrival="147.00" arrivalLane="D4D5_0" arrivalPos="492.80" arrivalSpeed="12.75" duration="137.00" routeLength="1494.90" waitingTime="0.00" waitingCount="0" stopTime="0.00" timeLoss="21.89" rerouteNo="0" devices="tripinfo_f_0_16.3" vType="DEFAULT_VEHTYPE" speedFactor="0.94" vaporized=""/>
    <tripinfo id="f_0_8.5" depart="15.00" departLane="G5G6_0" departPos="5.10" departSpeed="0.00" departDelay="4.00" arrival="147.00" arrivalLane="G7G8_0" arrivalPos="491.30" arrivalSpeed="11.29" duration="132.00" routeLength="1493.50" waitingTime="0.00" waitingCount="0" stopTime="0.00" timeLoss="10.29" rerouteNo="0" devices="tripinfo_f_0_8.5" vType="DEFAULT_VEHTYPE" speedFactor="0.89" vaporized=""/>
    <tripinfo id="f_0_9.5" depart="17.00" departLane="G9G8_0" departPos="5.10" departSpeed="0.00" departDelay="4.00" arrival="148.00" arrivalLane="G7G6_0" arrivalPos="492.80" arrivalSpeed="12.87" duration="131.00" routeLength="1494.90" waitingTime="0.00" waitingCount="0" stopTime="0.00" timeLoss="14.86" rerouteNo="0" devices="tripinfo_f_0_9.5" vType="DEFAULT_VEHTYPE" speedFactor="0.93" vaporized=""/>
    <tripinfo id="f_0_16.4" depart="13.00" departLane="D2D3_0" departPos="5.10" departSpeed="0.00" departDelay="1.00" arrival="149.00" arrivalLane="D4D5_0" arrivalPos="492.80" arrivalSpeed="11.91" duration="136.00" routeLength="1494.90" waitingTime="0.00" waitingCount="0" stopTime="0.00" timeLoss="22.25" rerouteNo="0" devices="tripinfo_f_0_16.4" vType="DEFAULT_VEHTYPE" speedFactor="0.95" vaporized=""/>
    <tripinfo id="f_0_16.5" depart="16.00" departLane="D2D3_0" departPos="5.10" departSpeed="0.00" departDelay="1.00" arrival="151.00" arrivalLane="D4D5_0" arrivalPos="492.80" arrivalSpeed="14.85" duration="135.00" routeLength="1494.90" waitingTime="0.00" waitingCount="0" stopTime="0.00" timeLoss="41.07" rerouteNo="0" devices="tripinfo_f_0_16.5" vType="DEFAULT_VEHTYPE" speedFactor="1.15" vaporized=""/>
    <tripinfo id="f_0_17.6" depart="29.00" departLane="D6D5_0" departPos="5.10" departSpeed="0.00" departDelay="0.00" arrival="157.00" arrivalLane="D4D3_0" arrivalPos="491.30" arrivalSpeed="13.93" duration="128.00" routeLength="1493.50" waitingTime="14.00" waitingCount="1" stopTime="0.00" timeLoss="29.03" rerouteNo="0" devices="tripinfo_f_0_17.6" vType="DEFAULT_VEHTYPE" speedFactor="1.09" vaporized=""/>
    <tripinfo id="f_0_1.0" depart="1.00" departLane="F7E7_0" departPos="5.10" departSpeed="0.00" departDelay="0.00" arrival="158.00" arrivalLane="C7B7_0" arrivalPos="491.30" arrivalSpeed="13.73" duration="157.00" routeLength="1993.50" waitingTime="0.00" waitingCount="0" stopTime="0.00" timeLoss="14.29" rerouteNo="0" devices="tripinfo_f_0_1.0" vType="DEFAULT_VEHTYPE" speedFactor="1.01" vaporized=""/>
    <tripinfo id="f_0_9.6" depart="20.00" departLane="G9G8_0" departPos="5.10" departSpeed="0.00" departDelay="1.00" arrival="164.00" arrivalLane="G7G6_0" arrivalPos="492.80" arrivalSpeed="13.72" duration="144.00" routeLength="1494.90" waitingTime="21.00" waitingCount="1" stopTime="0.00" timeLoss="35.36" rerouteNo="0" devices="tripinfo_f_0_9.6" vType="DEFAULT_VEHTYPE" speedFactor="0.99" vaporized=""/>
    <tripinfo id="f_0_1.1" depart="7.00" departLane="F7E7_0" departPos="5.10" departSpeed="0.00" departDelay="0.00" arrival="165.00" arrivalLane="C7B7_0" arrivalPos="491.30" arrivalSpeed="13.28" duration="158.00" routeLength="1993.50" waitingTime="0.00" waitingCount="0" stopTime="0.00" timeLoss="12.60" rerouteNo="0" devices="tripinfo_f_0_1.1" vType="DEFAULT_VEHTYPE" speedFactor="0.99" vaporized=""/>
    <tripinfo id="f_0_9.7" depart="25.00" departLane="G9G8_0" departPos="5.10" departSpeed="0.00" departDelay="0.00" arrival="166.00" arrivalLane="G7G6_0" arrivalPos="492.80" arrivalSpeed="13.14" duration="141.00" routeLength="1494.90" waitingTime="20.00" waitingCount="1" stopTime="0.00" timeLoss="35.87" rerouteNo="0" devices="tripinfo_f_0_9.7" vType="DEFAULT_VEHTYPE" speedFactor="1.03" vaporized=""/>
    <tripinfo id="f_0_9.8" depart="28.00" departLane="G9G8_0" departPos="5.10" departSpeed="0.00" departDelay="0.00" arrival="167.00" arrivalLane="G7G6_0" arrivalPos="492.80" arrivalSpeed="14.34" duration="139.00" routeLength="1494.90" waitingTime="18.00" waitingCount="1" stopTime="0.00" timeLoss="35.19" rerouteNo="0" devices="tripinfo_f_0_9.8" vType="DEFAULT_VEHTYPE" speedFactor="1.04" vaporized=""/>
    <tripinfo id="f_0_0.0" depart="5.00" departLane="A7B7_0" departPos="5.10" departSpeed="0.00" departDelay="0.00" arrival="172.00" arrivalLane="D7E7_0" arrivalPos="492.80" arrivalSpeed="12.81" duration="167.00" routeLength="1994.90" waitingTime="0.00" waitingCount="0" stopTime="0.00" timeLoss="13.62" rerouteNo="0" devices="tripinfo_f_0_0.0" vType="DEFAULT_VEHTYPE" speedFactor="0.94" vaporized=""/>
    <tripinfo id="f_0_16.6" depart="24.00" departLane="D2D3_0" departPos="5.10" departSpeed="0.00" departDelay="0.00" arrival="172.00" arrivalLane="D4D5_0" arrivalPos="492.80" arrivalSpeed="11.94" duration="148.00" routeLength="1494.90" waitingTime="13.00" waitingCount="1" stopTime="0.00" timeLoss="27.97" rerouteNo="0" devices="tripinfo_f_0_16.6" vType="DEFAULT_VEHTYPE" speedFactor="0.90" vaporized=""/>
    <tripinfo id="f_0_0.1" depart="8.00" departLane="A7B7_0" departPos="5.10" departSpeed="0.00" departDelay="1.00" arrival="174.00" arrivalLane="D7E7_0" arrivalPos="492.80" arrivalSpeed="15.36" duration="166.00" routeLength="1994.90" waitingTime="0.00" waitingCount="0" stopTime="0.00" timeLoss="37.42" rerouteNo="0" devices="tripinfo_f_0_0.1" vType="DEFAULT_VEHTYPE" speedFactor="1.12" vaporized=""/>
    <tripinfo id="f_0_1.2" depart="11.00" departLane="F7E7_0" departPos="5.10" departSpeed="0.00" departDelay="0.00" arrival="174.00" arrivalLane="C7B7_0" arrivalPos="491.30" arrivalSpeed="12.93" duration="163.00" routeLength="1993.50" waitingTime="0.00" waitingCount="0" stopTime="0.00" timeLoss="15.05" rerouteNo="0" devices="tripinfo_f_0_1.2" vType="DEFAULT_VEHTYPE" speedFactor="0.97" vaporized=""/>
    <tripinfo id="f_0_8.6" depart="18.00" departLane="G5G6_0" departPos="5.10" departSpeed="0.00" departDelay="6.00" arrival="174.00" arrivalLane="G7G8_0" arrivalPos="491.30" arrivalSpeed="11.10" duration="156.00" routeLength="1493.50" waitingTime="18.00" waitingCount="1" stopTime="0.00" timeLoss="32.46" rerouteNo="0" devices="tripinfo_f_0_8.6" vType="DEFAULT_VEHTYPE" speedFactor="0.87" vaporized=""/>
    <tripinfo id="f_0_16.7" depart="27.00" departLane="D2D3_0" departPos="5.10" departSpeed="0.00" departDelay="1.00" arrival="174.00" arrivalLane="D4D5_0" arrivalPos="492.80" arrivalSpeed="14.55" duration="147.00" routeLength="1494.90" waitingTime="12.00" waitingCount="1" stopTime="0.00" timeLoss="47.58" rerouteNo="0" devices="tripinfo_f_0_16.7" vType="DEFAULT_VEHTYPE" speedFactor="1.09" vaporized=""/>
    <tripinfo id="f_0_16.8" depart="30.00" departLane="D2D3_0" departPos="5.10" departSpeed="0.00" departDelay="2.00" arrival="175.00" arrivalLane="D4D5_0" arrivalPos="492.80" arrivalSpeed="13.64" duration="145.00" routeLength="1494.90" waitingTime="11.00" waitingCount="1" stopTime="0.00" timeLoss="41.64" rerouteNo="0" devices="tripinfo_f_0_16.8" vType="DEFAULT_VEHTYPE" speedFactor="1.04" vaporized=""/>
    <tripinfo id="f_0_8.7" depart="21.00" departLane="G5G6_0" departPos="5.10" departSpeed="0.00" departDelay="6.00" arrival="176.00" arrivalLane="G7G8_0" arrivalPos="491.30" arrivalSpeed="16.08" duration="155.00" routeLength="1493.50" waitingTime="17.00" waitingCount="1" stopTime="0.00" timeLoss="62.94" rerouteNo="0" devices="tripinfo_f_0_8.7" vType="DEFAULT_VEHTYPE" speedFactor="1.18" vaporized=""/>
    <tripinfo id="f_0_1.3" depart="18.00" departLane="F7E7_0" departPos="5.10" departSpeed="0.00" departDelay="0.00" arrival="176.00" arrivalLane="C7B7_0" arrivalPos="491.30" arrivalSpeed="13.60" duration="158.00" routeLength="1993.50" waitingTime="0.00" waitingCount="0" stopTime="0.00" timeLoss="14.29" rerouteNo="0" devices="tripinfo_f_0_1.3" vType="DEFAULT_VEHTYPE" speedFactor="1.01" vaporized=""/>
    <tripinfo id="f_0_0.2" depart="11.00" departLane="A7B7_0" departPos="5.10" departSpeed="0.00" departDelay="3.00" arrival="177.00" arrivalLane="D7E7_0" arrivalPos="492.80" arrivalSpeed="12.12" duration="166.00" routeLength="1994.90" waitingTime="0.00" waitingCount="0" stopTime="0.00" timeLoss="12.86" rerouteNo="0" devices="tripinfo_f_0_0.2" vType="DEFAULT_VEHTYPE" speedFactor="0.94" vaporized=""/>
    <tripinfo id="f_0_1.4" depart="21.00" departLane="F7E7_0" departPos="5.10" departSpeed="0.00" departDelay="2.00" arrival="177.00" arrivalLane="C7B7_0" arrivalPos="491.30" arrivalSpeed="15.18" duration="156.00" routeLength="1993.50" waitingTime="0.00" waitingCount="0" stopTime="0.00" timeLoss="33.22" rerouteNo="0" devices="tripinfo_f_0_1.4" vType="DEFAULT_VEHTYPE" speedFactor="1.17" vaporized=""/>
    <tripinfo id="f_0_9.9" depart="31.00" departLane="G9G8_0" departPos="5.10" departSpeed="0.00" departDelay="1.00" arrival="177.00" arrivalLane="G7G6_0" arrivalPos="492.80" arrivalSpeed="12.15" duration="146.00" routeLength="1494.90" waitingTime="11.00" waitingCount="1" stopTime="0.00" timeLoss="25.99" rerouteNo="0" devices="tripinfo_f_0_9.9" vType="DEFAULT_VEHTYPE" speedFactor="0.90" vaporized=""/>
    <tripinfo id="f_0_8.8" depart="32.00" departLane="G5G6_0" departPos="5.10" departSpeed="0.00" departDelay="0.00" arrival="177.00" arrivalLane="G7G8_0" arrivalPos="491.30" arrivalSpeed="12.98" duration="145.00" routeLength="1493.50" waitingTime="13.00" waitingCount="1" stopTime="0.00" timeLoss="37.73" rerouteNo="0" devices="tripinfo_f_0_8.8" vType="DEFAULT_VEHTYPE" speedFactor="1.00" vaporized=""/>
    <tripinfo id="f_0_0.3" depart="14.00" departLane="A7B7_0" departPos="5.10" departSpeed="0.00" departDelay="4.00" arrival="178.00" arrivalLane="D7E7_0" arrivalPos="492.80" arrivalSpeed="14.31" duration="164.00" routeLength="1994.90" waitingTime="0.00" waitingCount="0" stopTime="0.00" timeLoss="39.95" rerouteNo="0" devices="tripinfo_f_0_0.3" vType="DEFAULT_VEHTYPE" speedFactor="1.16" vaporized=""/>
    <tripinfo id="f_0_17.7" depart="32.00" departLane="D6D5_0" departPos="5.10" departSpeed="0.00" departDelay="2.00" arrival="179.00" arrivalLane="D4D3_0" arrivalPos="491.30" arrivalSpeed="11.24" duration="147.00" routeLength="1493.50" waitingTime="4.00" waitingCount="1" stopTime="0.00" timeLoss="20.09" rerouteNo="0" devices="tripinfo_f_0_17.7" vType="DEFAULT_VEHTYPE" speedFactor="0.85" vaporized=""/>
    <tripinfo id="f_0_9.10" depart="34.00" departLane="G9G8_0" departPos="5.10" departSpeed="0.00" departDelay="1.00" arrival="179.00" arrivalLane="G7G6_0" arrivalPos="492.80" arrivalSpeed="11.79" duration="145.00" routeLength="1494.90" waitingTime="8.00" waitingCount="1" stopTime="0.00" timeLoss="25.04" rerouteNo="0" devices="tripinfo_f_0_9.10" vType="DEFAULT_VEHTYPE" speedFactor="0.90" vaporized=""/>
    <tripinfo id="f_0_8.9" depart="38.00" departLane="G5G6_0" departPos="5.10" departSpeed="0.00" departDelay="0.00" arrival="179.00" arrivalLane="G7G8_0" arrivalPos="491.30" arrivalSpeed="12.20" duration="141.00" routeLength="1493.50" waitingTime="6.00" waitingCount="1" stopTime="0.00" timeLoss="23.41" rerouteNo="0" devices="tripinfo_f_0_8.9" vType="DEFAULT_VEHTYPE" speedFactor="0.91" vaporized=""/>
    <tripinfo id="f_0_16.9" depart="33.00" departLane="D2D3_0" departPos="5.10" departSpeed="0.00" departDelay="3.00" arrival="180.00" arrivalLane="D4D5_0" arrivalPos="492.80" arrivalSpeed="11.02" duration="147.00" routeLength="1494.90" waitingTime="6.00" waitingCount="1" stopTime="0.00" timeLoss="23.45" rerouteNo="0" devices="tripinfo_f_0_16.9" vType="DEFAULT_VEHTYPE" speedFactor="0.88" vaporized=""/>
    <tripinfo id="f_0_16.10" depart="36.00" departLane="D2D3_0" departPos="5.10" departSpeed="0.00" departDelay="5.00" arrival="181.00" arrivalLane="D4D5_0" arrivalPos="492.80" arrivalSpeed="13.67" duration="145.00" routeLength="1494.90" waitingTime="6.00" waitingCount="1" stopTime="0.00" timeLoss="38.92" rerouteNo="0" devices="tripinfo_f_0_16.10" vType="DEFAULT_VEHTYPE" speedFactor="1.02" vaporized=""/>
    <tripinfo id="f_0_17.8" depart="35.00" departLane="D6D5_0" departPos="5.10" departSpeed="0.00" departDelay="2.00" arrival="181.00" arrivalLane="D4D3_0" arrivalPos="491.30" arrivalSpeed="15.26" duration="146.00" routeLength="1493.50" waitingTime="3.00" waitingCount="1" stopTime="0.00" timeLoss="51.04" rerouteNo="0" devices="tripinfo_f_0_17.8" vType="DEFAULT_VEHTYPE" speedFactor="1.14" vaporized=""/>
    <tripinfo id="f_0_9.11" depart="37.00" departLane="G9G8_0" departPos="5.10" departSpeed="0.00" departDelay="3.00" arrival="181.00" arrivalLane="G7G6_0" arrivalPos="492.80" arrivalSpeed="14.19" duration="144.00" routeLength="1494.90" waitingTime="9.00" waitingCount="1" stopTime="0.00" timeLoss="38.28" rerouteNo="0" devices="tripinfo_f_0_9.11" vType="DEFAULT_VEHTYPE" speedFactor="1.02" vaporized=""/>
    <tripinfo id="f_0_8.10" depart="47.00" departLane="G5G6_0" departPos="5.10" departSpeed="0.00" departDelay="0.00" arrival="181.00" arrivalLane="G7G8_0" arrivalPos="491.30" arrivalSpeed="13.55" duration="134.00" routeLength="1493.50" waitingTime="1.00" waitingCount="1" stopTime="0.00" timeLoss="27.97" rerouteNo="0" devices="tripinfo_f_0_8.10" vType="DEFAULT_VEHTYPE" speedFactor="1.02" vaporized=""/>
    <tripinfo id="f_0_16.11" depart="39.00" departLane="D2D3_0" departPos="5.10" departSpeed="0.00" departDelay="7.00" arrival="183.00" arrivalLane="D4D5_0" arrivalPos="492.80" arrivalSpeed="13.69" duration="144.00" routeLength="1494.90" waitingTime="5.00" waitingCount="1" stopTime="0.00" timeLoss="35.48" rerouteNo="0" devices="tripinfo_f_0_16.11" vType="DEFAULT_VEHTYPE" speedFactor="1.00" vaporized=""/>
    <tripinfo id="f_0_17.9" depart="38.00" departLane="D6D5_0" departPos="5.10" departSpeed="0.00" departDelay="4.00" arrival="183.00" arrivalLane="D4D3_0" arrivalPos="491.30" arrivalSpeed="12.27" duration="145.00" routeLength="1493.50" waitingTime="2.00" waitingCount="1" stopTime="0.00" timeLoss="33.20" rerouteNo="0" devices="tripinfo_f_0_17.9" vType="DEFAULT_VEHTYPE" speedFactor="0.97" vaporized=""/>
    <tripinfo id="f_0_9.12" depart="40.00" departLane="G9G8_0" departPos="5.10" departSpeed="0.00" departDelay="4.00" arrival="183.00" arrivalLane="G7G6_0" arrivalPos="492.80" arrivalSpeed="13.66" duration="143.00" routeLength="1494.90" waitingTime="6.00" waitingCount="1" stopTime="0.00" timeLoss="36.24" rerouteNo="0" devices="tripinfo_f_0_9.12" vType="DEFAULT_VEHTYPE" speedFactor="1.02" vaporized=""/>
    <tripinfo id="f_0_8.11" depart="51.00" departLane="G5G6_0" departPos="5.10" departSpeed="0.00" departDelay="0.00" arrival="183.00" arrivalLane="G7G8_0" arrivalPos="491.30" arrivalSpeed="13.31" duration="132.00" routeLength="1493.50" waitingTime="0.00" waitingCount="0" stopTime="0.00" timeLoss="21.28" rerouteNo="0" devices="tripinfo_f_0_8.11" vType="DEFAULT_VEHTYPE" speedFactor="0.98" vaporized=""/>
    <tripinfo id="f_0_17.10" depart="41.00" departLane="D6D5_0" departPos="5.10" departSpeed="0.00" departDelay="5.00" arrival="184.00" arrivalLane="D4D3_0" arrivalPos="491.30" arrivalSpeed="13.45" duration="143.00" routeLength="1493.50" waitingTime="2.00" waitingCount="1" stopTime="0.00" timeLoss="33.77" rerouteNo="0" devices="tripinfo_f_0_17.10" vType="DEFAULT_VEHTYPE" speedFactor="0.99" vaporized=""/>
    <tripinfo id="f_0_16.12" depart="43.00" departLane="D2D3_0" departPos="5.10" departSpeed="0.00" departDelay="5.00" arrival="185.00" arrivalLane="D4D5_0" arrivalPos="492.80" arrivalSpeed="13.76" duration="142.00" routeLength="1494.90" waitingTime="5.00" waitingCount="1" stopTime="0.00" timeLoss="37.74" rerouteNo="0" devices="tripinfo_f_0_16.12" vType="DEFAULT_VEHTYPE" speedFactor="1.04" vaporized=""/>
    <tripinfo id="f_0_9.13" depart="43.00" departLane="G9G8_0" departPos="5.10" departSpeed="0.00" departDelay="3.00" arrival="185.00" arrivalLane="G7G6_0" arrivalPos="492.80" arrivalSpeed="13.29" duration="142.00" routeLength="1494.90" waitingTime="6.00" waitingCount="1" stopTime="0.00" timeLoss="30.47" rerouteNo="0" devices="tripinfo_f_0_9.13" vType="DEFAULT_VEHTYPE" speedFactor="0.97" vaporized=""/>
    <tripinfo id="f_0_8.12" depart="54.00" departLane="G5G6_0" departPos="5.10" departSpeed="0.00" departDelay="2.00" arrival="185.00" arrivalLane="G7G8_0" arrivalPos="491.30" arrivalSpeed="13.89" duration="131.00" routeLength="1493.50" waitingTime="0.00" waitingCount="0" stopTime="0.00" timeLoss="27.07" rerouteNo="0" devices="tripinfo_f_0_8.12" vType="DEFAULT_VEHTYPE" speedFactor="1.04" vaporized=""/>
    <tripinfo id="f_0_17.11" depart="44.00" departLane="D6D5_0" departPos="5.10" departSpeed="0.00" departDelay="7.00" arrival="186.00" arrivalLane="D4D3_0" arrivalPos="491.30" arrivalSpeed="12.25" duration="142.00" routeLength="1493.50" waitingTime="1.00" waitingCount="1" stopTime="0.00" timeLoss="19.81" rerouteNo="0" devices="tripinfo_f_0_17.11" vType="DEFAULT_VEHTYPE" speedFactor="0.88" vaporized=""/>
    <tripinfo id="f_0_9.14" depart="46.00" departLane="G9G8_0" departPos="5.10" departSpeed="0.00" departDelay="2.00" arrival="186.00" arrivalLane="G7G6_0" arrivalPos="492.80" arrivalSpeed="13.17" duration="140.00" routeLength="1494.90" waitingTime="6.00" waitingCount="2" stopTime="0.00" timeLoss="33.03" rerouteNo="0" devices="tripinfo_f_0_9.14" vType="DEFAULT_VEHTYPE" speedFactor="1.01" vaporized=""/>
    <tripinfo id="f_0_8.13" depart="62.00" departLane="G5G6_0" departPos="5.10" departSpeed="0.00" departDelay="0.00" arrival="186.00" arrivalLane="G7G8_0" arrivalPos="491.30" arrivalSpeed="12.87" duration="124.00" routeLength="1493.50" waitingTime="0.00" waitingCount="0" stopTime="0.00" timeLoss="11.93" rerouteNo="0" devices="tripinfo_f_0_8.13" vType="DEFAULT_VEHTYPE" speedFactor="0.96" vaporized=""/>
    <tripinfo id="f_0_16.13" depart="46.00" departLane="D2D3_0" departPos="5.10" departSpeed="0.00" departDelay="6.00" arrival="187.00" arrivalLane="D4D5_0" arrivalPos="492.80" arrivalSpeed="12.41" duration="141.00" routeLength="1494.90" waitingTime="5.00" waitingCount="1" stopTime="0.00" timeLoss="25.79" rerouteNo="0" devices="tripinfo_f_0_16.13" vType="DEFAULT_VEHTYPE" speedFactor="0.94" vaporized=""/>
    <tripinfo id="f_0_17.12" depart="47.00" departLane="D6D5_0" departPos="5.10" departSpeed="0.00" departDelay="7.00" arrival="188.00" arrivalLane="D4D3_0" arrivalPos="491.30" arrivalSpeed="14.16" duration="141.00" routeLength="1493.50" waitingTime="0.00" waitingCount="0" stopTime="0.00" timeLoss="38.39" rerouteNo="0" devices="tripinfo_f_0_17.12" vType="DEFAULT_VEHTYPE" speedFactor="1.06" vaporized=""/>
    <tripinfo id="f_0_16.14" depart="49.00" departLane="D2D3_0" departPos="5.10" departSpeed="0.00" departDelay="8.00" arrival="188.00" arrivalLane="D4D5_0" arrivalPos="492.80" arrivalSpeed="13.12" duration="139.00" routeLength="1494.90" waitingTime="3.00" waitingCount="2" stopTime="0.00" timeLoss="29.67" rerouteNo="0" devices="tripinfo_f_0_16.14" vType="DEFAULT_VEHTYPE" speedFactor="0.98" vaporized=""/>
    <tripinfo id="f_0_9.15" depart="50.00" departLane="G9G8_0" departPos="5.10" departSpeed="0.00" departDelay="0.00" arrival="188.00" arrivalLane="G7G6_0" arrivalPos="492.80" arrivalSpeed="15.44" duration="138.00" routeLength="1494.90" waitingTime="5.00" waitingCount="1" stopTime="0.00" timeLoss="43.73" rerouteNo="0" devices="tripinfo_f_0_9.15" vType="DEFAULT_VEHTYPE" speedFactor="1.15" vaporized=""/>
    <tripinfo id="f_0_17.13" depart="50.00" departLane="D6D5_0" departPos="5.10" departSpeed="0.00" departDelay="7.00" arrival="190.00" arrivalLane="D4D3_0" arrivalPos="491.30" arrivalSpeed="13.49" duration="140.00" routeLength="1493.50" waitingTime="0.00" waitingCount="0" stopTime="0.00" timeLoss="34.99" rerouteNo="0" devices="tripinfo_f_0_17.13" vType="DEFAULT_VEHTYPE" speedFactor="1.03" vaporized=""/>
    <tripinfo id="f_0_16.15" depart="52.00" departLane="D2D3_0" departPos="5.10" departSpeed="0.00" departDelay="7.00" arrival="190.00" arrivalLane="D4D5_0" arrivalPos="492.80" arrivalSpeed="14.29" duration="138.00" routeLength="1494.90" waitingTime="4.00" waitingCount="1" stopTime="0.00" timeLoss="33.54" rerouteNo="0" devices="tripinfo_f_0_16.15" vType="DEFAULT_VEHTYPE" speedFactor="1.03" vaporized=""/>
    <tripinfo id="f_0_9.16" depart="53.00" departLane="G9G8_0" departPos="5.10" departSpeed="0.00" departDelay="1.00" arrival="190.00" arrivalLane="G7G6_0" arrivalPos="492.80" arrivalSpeed="13.54" duration="137.00" routeLength="1494.90" waitingTime="4.00" waitingCount="1" stopTime="0.00" timeLoss="29.41" rerouteNo="0" devices="tripinfo_f_0_9.16" vType="DEFAULT_VEHTYPE" speedFactor="1.01" vaporized=""/>
    <tripinfo id="f_0_17.14" depart="53.00" departLane="D6D5_0" departPos="5.10" departSpeed="0.00" departDelay="2.00" arrival="191.00" arrivalLane="D4D3_0" arrivalPos="491.30" arrivalSpeed="13.46" duration="138.00" routeLength="1493.50" waitingTime="0.00" waitingCount="0" stopTime="0.00" timeLoss="30.53" rerouteNo="0" devices="tripinfo_f_0_17.14" vType="DEFAULT_VEHTYPE" speedFactor="1.00" vaporized=""/>