<?xml version="1.0" encoding="UTF-8"?>

<!-- generated on 2024-08-22 13:20:39 by Eclipse SUMO sumo Version 1.17.0
<configuration xmlns:xsi="http://www.w3.org/2001/XMLSchema-instance" xsi:noNamespaceSchemaLocation="http://sumo.dlr.de/xsd/sumoConfiguration.xsd">

    <input>
        <net-file value="double_static.net.xml"/>
        <route-files value="double_1.rou.xml"/>
    </input>

    <output>
        <summary-output value="control_summaries\summary_double_static_1.xml"/>
        <tripinfo-output value="control_summaries\tripinfos_double_static_1.xml"/>
    </output>

    <processing>
        <time-to-teleport value="-1"/>
    </processing>

    <traci_server>
        <remote-port value="58043"/>
    </traci_server>

</configuration>
-->

<tripinfos xmlns:xsi="http://www.w3.org/2001/XMLSchema-instance" xsi:noNamespaceSchemaLocation="http://sumo.dlr.de/xsd/tripinfo_file.xsd">
    <tripinfo id="f_0_8.0" depart="0.00" departLane="G5G6_0" departPos="5.10" departSpeed="0.00" departDelay="0.00" arrival="128.00" arrivalLane="G7G8_0" arrivalPos="491.30" arrivalSpeed="14.70" duration="128.00" routeLength="1493.50" waitingTime="15.00" waitingCount="1" stopTime="0.00" timeLoss="26.51" rerouteNo="0" devices="tripinfo_f_0_8.0" vType="DEFAULT_VEHTYPE" speedFactor="1.06" vaporized=""/>
    <tripinfo id="f_0_16.0" depart="1.00" departLane="D2D3_0" departPos="5.10" departSpeed="0.00" departDelay="0.00" arrival="128.00" arrivalLane="D4D5_0" arrivalPos="492.80" arrivalSpeed="14.31" duration="127.00" routeLength="1494.90" waitingTime="12.00" waitingCount="1" stopTime="0.00" timeLoss="27.01" rerouteNo="0" devices="tripinfo_f_0_16.0" vType="DEFAULT_VEHTYPE" speedFactor="1.08" vaporized=""/>
    <tripinfo id="f_0_9.0" depart="2.00" departLane="G9G8_0" departPos="5.10" departSpeed="0.00" departDelay="0.00" arrival="130.00" arrivalLane="G7G6_0" arrivalPos="492.80" arrivalSpeed="13.04" duration="128.00" routeLength="1494.90" waitingTime="10.00" waitingCount="1" stopTime="0.00" timeLoss="23.14" rerouteNo="0" devices="tripinfo_f_0_9.0" vType="DEFAULT_VEHTYPE" speedFactor="1.03" vaporized=""/>
    <tripinfo id="f_0_8.1" depart="3.00" departLane="G5G6_0" departPos="5.10" departSpeed="0.00" departDelay="0.00" arrival="131.00" arrivalLane="G7G8_0" arrivalPos="491.30" arrivalSpeed="13.77" duration="128.00" routeLength="1493.50" waitingTime="10.00" waitingCount="1" stopTime="0.00" timeLoss="24.79" rerouteNo="0" devices="tripinfo_f_0_8.1" vType="DEFAULT_VEHTYPE" speedFactor="1.05" vaporized=""/>
    <tripinfo id="f_0_17.0" depart="0.00" departLane="D6D5_0" departPos="5.10" departSpeed="0.00" departDelay="0.00" arrival="133.00" arrivalLane="D4D3_0" arrivalPos="491.30" arrivalSpeed="12.06" duration="133.00" routeLength="1493.50" waitingTime="4.00" waitingCount="1" stopTime="0.00" timeLoss="18.20" rerouteNo="0" devices="tripinfo_f_0_17.0" vType="DEFAULT_VEHTYPE" speedFactor="0.94" vaporized=""/>
    <tripinfo id="f_0_8.2" depart="6.00" departLane="G5G6_0" departPos="5.10" departSpeed="0.00" departDelay="0.00" arrival="133.00" arrivalLane="G7G8_0" arrivalPos="491.30" arrivalSpeed="13.33" duration="127.00" routeLength="1493.50" waitingTime="8.00" waitingCount="1" stopTime="0.00" timeLoss="21.55" rerouteNo="0" devices="tripinfo_f_0_8.2" vType="DEFAULT_VEHTYPE" speedFactor="1.03" vaporized=""/>
    <tripinfo id="f_0_17.1" depart="4.00" departLane="D6D5_0" departPos="5.10" departSpeed="0.00" departDelay="0.00" arrival="137.00" arrivalLane="D4D3_0" arrivalPos="491.30" arrivalSpeed="11.08" duration="133.00" routeLength="1493.50" waitingTime="0.00" waitingCount="0" stopTime="0.00" timeLoss="11.51" rerouteNo="0" devices="tripinfo_f_0_17.1" vType="DEFAULT_VEHTYPE" speedFactor="0.89" vaporized=""/>
    <tripinfo id="f_0_17.2" depart="7.00" departLane="D6D5_0" departPos="5.10" departSpeed="0.00" departDelay="2.00" arrival="139.00" arrivalLane="D4D3_0" arrivalPos="491.30" arrivalSpeed="14.12" duration="132.00" routeLength="1493.50" waitingTime="0.00" waitingCount="0" stopTime="0.00" timeLoss="32.92" rerouteNo="0" devices="tripinfo_f_0_17.2" vType="DEFAULT_VEHTYPE" speedFactor="1.09" vaporized=""/>
    <tripinfo id="f_0_8.3" depart="9.00" departLane="G5G6_0" departPos="5.10" departSpeed="0.00" departDelay="2.00" arrival="139.00" arrivalLane="G7G8_0" arrivalPos="491.30" arrivalSpeed="11.66" duration="130.00" routeLength="1493.50" waitingTime="0.00" waitingCount="0" stopTime="0.00" timeLoss="13.55" rerouteNo="0" devices="tripinfo_f_0_8.3" vType="DEFAULT_VEHTYPE" speedFactor="0.93" vaporized=""/>
    <tripinfo id="f_0_9.1" depart="5.00" departLane="G9G8_0" departPos="5.10" departSpeed="0.00" departDelay="0.00" arrival="141.00" arrivalLane="G7G6_0" arrivalPos="492.80" arrivalSpeed="11.33" duration="136.00" routeLength="1494.90" waitingTime="0.00" waitingCount="0" stopTime="0.00" timeLoss="9.69" rerouteNo="0" devices="tripinfo_f_0_9.1" vType="DEFAULT_VEHTYPE" speedFactor="0.86" vaporized=""/>
    <tripinfo id="f_0_8.4" depart="12.00" departLane="G5G6_0" departPos="5.10" departSpeed="0.00" departDelay="2.00" arrival="141.00" arrivalLane="G7G8_0" arrivalPos="491.30" arrivalSpeed="13.36" duration="129.00" routeLength="1493.50" waitingTime="0.00" waitingCount="0" stopTime="0.00" timeLoss="22.65" rerouteNo="0" devices="tripinfo_f_0_8.4" vType="DEFAULT_VEHTYPE" speedFactor="1.02" vaporized=""/>
    <tripinfo id="f_0_17.3" depart="12.00" departLane="D6D5_0" departPos="5.10" departSpeed="0.00" departDelay="0.00" arrival="141.00" arrivalLane="D4D3_0" arrivalPos="491.30" arrivalSpeed="14.95" duration="129.00" routeLength="1493.50" waitingTime="0.00" waitingCount="0" stopTime="0.00" timeLoss="33.18" rerouteNo="0" devices="tripinfo_f_0_17.3" vType="DEFAULT_VEHTYPE" speedFactor="1.13" vaporized=""/>
    <tripinfo id="f_0_9.2" depart="8.00" departLane="G9G8_0" departPos="5.10" departSpeed="0.00" departDelay="2.00" arrival="142.00" arrivalLane="G7G6_0" arrivalPos="492.80" arrivalSpeed="13.86" duration="134.00" routeLength="1494.90" waitingTime="0.00" waitingCount="0" stopTime="0.00" timeLoss="31.08" rerouteNo="0" devices="tripinfo_f_0_9.2" vType="DEFAULT_VEHTYPE" speedFactor="1.05" vaporized=""/>
    <tripinfo id="f_0_17.4" depart="22.00" departLane="D6D5_0" departPos="5.10" departSpeed="0.00" departDelay="0.00" arrival="142.00" arrivalLane="D4D3_0" arrivalPos="491.30" arrivalSpeed="15.13" duration="120.00" routeLength="1493.50" waitingTime="0.00" waitingCount="0" stopTime="0.00" timeLoss="28.64" rerouteNo="0" devices="tripinfo_f_0_17.4" vType="DEFAULT_VEHTYPE" speedFactor="1.18" vaporized=""/>
    <tripinfo id="f_0_16.1" depart="4.00" departLane="D2D3_0" departPos="5.10" departSpeed="0.00" departDelay="2.00" arrival="144.00" arrivalLane="D4D5_0" arrivalPos="492.80" arrivalSpeed="10.99" duration="140.00" routeLength="1494.90" waitingTime="0.00" waitingCount="0" stopTime="0.00" timeLoss="9.99" rerouteNo="0" devices="tripinfo_f_0_16.1" vType="DEFAULT_VEHTYPE" speedFactor="0.83" vaporized=""/>
    <tripinfo id="f_0_9.3" depart="11.00" departLane="G9G8_0" departPos="5.10" departSpeed="0.00" departDelay="1.00" arrival="144.00" arrivalLane="G7G6_0" arrivalPos="492.80" arrivalSpeed="13.88" duration="133.00" routeLength="1494.90" waitingTime="0.00" waitingCount="0" stopTime="0.00" timeLoss="26.06" rerouteNo="0" devices="tripinfo_f_0_9.3" vType="DEFAULT_VEHTYPE" speedFactor="1.01" vaporized=""/>
    <tripinfo id="f_0_17.5" depart="25.00" departLane="D6D5_0" departPos="5.10" departSpeed="0.00" departDelay="2.00" arrival="144.00" arrivalLane="D4D3_0" arrivalPos="491.30" arrivalSpeed="15.30" duration="119.00" routeLength="1493.50" waitingTime="0.00" waitingCount="0" stopTime="0.00" timeLoss="20.83" rerouteNo="0" devices="tripinfo_f_0_17.5" vType="DEFAULT_VEHTYPE" speedFactor="1.10" vaporized=""/>
    <tripinfo id="f_0_16.2" depart="7.00" departLane="D2D3_0" departPos="5.10" departSpeed="0.00" departDelay="0.00" arrival="146.00" arrivalLane="D4D5_0" arrivalPos="492.80" arrivalSpeed="11.72" duration="139.00" routeLength="1494.90" waitingTime="0.00" waitingCount="0" stopTime="0.00" timeLoss="15.81" rerouteNo="0" devices="tripinfo_f_0_16.2" vType="DEFAULT_VEHTYPE" speedFactor="0.88" vaporized=""/>
    <tripinfo id="f_0_8.5" depart="15.00" departLane="G5G6_0" departPos="5.10" departSpeed="0.00" departDelay="4.00" arrival="146.00" arrivalLane="G7G8_0" arrivalPos="491.30" arrivalSpeed="12.01" duration="131.00" routeLength="1493.50" waitingTime="0.00" waitingCount="0" stopTime="0.00" timeLoss="9.69" rerouteNo="0" devices="tripinfo_f_0_8.5" vType="DEFAULT_VEHTYPE" speedFactor="0.89" vaporized=""/>
    <tripinfo id="f_0_9.4" depart="14.00" departLane="G9G8_0" departPos="5.10" departSpeed="0.00" departDelay="2.00" arrival="146.00" arrivalLane="G7G6_0" arrivalPos="492.80" arrivalSpeed="11.81" duration="132.00" routeLength="1494.90" waitingTime="0.00" waitingCount="0" stopTime="0.00" timeLoss="14.20" rerouteNo="0" devices="tripinfo_f_0_9.4" vType="DEFAULT_VEHTYPE" speedFactor="0.92" vaporized=""/>
    <tripinfo id="f_0_16.3" depart="10.00" departLane="D2D3_0" departPos="5.10" departSpeed="0.00" departDelay="1.00" arrival="148.00" arrivalLane="D4D5_0" arrivalPos="492.80" arrivalSpeed="12.29" duration="138.00" routeLength="1494.90" waitingTime="0.00" waitingCount="0" stopTime="0.00" timeLoss="22.16" rerouteNo="0" devices="tripinfo_f_0_16.3" vType="DEFAULT_VEHTYPE" speedFactor="0.94" vaporized=""/>
    <tripinfo id="f_0_9.5" depart="17.00" departLane="G9G8_0" departPos="5.10" departSpeed="0.00" departDelay="4.00" arrival="148.00" arrivalLane="G7G6_0" arrivalPos="492.80" arrivalSpeed="12.23" duration="131.00" routeLength="1494.90" waitingTime="0.00" waitingCount="0" stopTime="0.00" timeLoss="14.69" rerouteNo="0" devices="tripinfo_f_0_9.5" vType="DEFAULT_VEHTYPE" speedFactor="0.93" vaporized=""/>
    <tripinfo id="f_0_16.4" depart="13.00" departLane="D2D3_0" departPos="5.10" departSpeed="0.00" departDelay="1.00" arrival="149.00" arrivalLane="D4D5_0" arrivalPos="492.80" arrivalSpeed="11.92" duration="136.00" routeLength="1494.90" waitingTime="0.00" waitingCount="0" stopTime="0.00" timeLoss="22.45" rerouteNo="0" devices="tripinfo_f_0_16.4" vType="DEFAULT_VEHTYPE" speedFactor="0.95" vaporized=""/>
    <tripinfo id="f_0_16.5" depart="16.00" departLane="D2D3_0" departPos="5.10" departSpeed="0.00" departDelay="1.00" arrival="151.00" arrivalLane="D4D5_0" arrivalPos="492.80" arrivalSpeed="15.93" duration="135.00" routeLength="1494.90" waitingTime="0.00" waitingCount="0" stopTime="0.00" timeLoss="41.12" rerouteNo="0" devices="tripinfo_f_0_16.5" vType="DEFAULT_VEHTYPE" speedFactor="1.15" vaporized=""/>
    <tripinfo id="f_0_17.6" depart="29.00" departLane="D6D5_0" departPos="5.10" departSpeed="0.00" departDelay="0.00" arrival="157.00" arrivalLane="D4D3_0" arrivalPos="491.30" arrivalSpeed="14.04" duration="128.00" routeLength="1493.50" waitingTime="14.00" waitingCount="1" stopTime="0.00" timeLoss="28.75" rerouteNo="0" devices="tripinfo_f_0_17.6" vType="DEFAULT_VEHTYPE" speedFactor="1.09" vaporized=""/>
    <tripinfo id="f_0_9.6" depart="20.00" departLane="G9G8_0" departPos="5.10" departSpeed="0.00" departDelay="1.00" arrival="164.00" arrivalLane="G7G6_0" arrivalPos="492.80" arrivalSpeed="13.22" duration="144.00" routeLength="1494.90" waitingTime="21.00" waitingCount="1" stopTime="0.00" timeLoss="34.98" rerouteNo="0" devices="tripinfo_f_0_9.6" vType="DEFAULT_VEHTYPE" speedFactor="0.99" vaporized=""/>
    <tripinfo id="f_0_9.7" depart="25.00" departLane="G9G8_0" departPos="5.10" departSpeed="0.00" departDelay="0.00" arrival="165.00" arrivalLane="G7G6_0" arrivalPos="492.80" arrivalSpeed="14.31" duration="140.00" routeLength="1494.90" waitingTime="20.00" waitingCount="1" stopTime="0.00" timeLoss="35.41" rerouteNo="0" devices="tripinfo_f_0_9.7" vType="DEFAULT_VEHTYPE" speedFactor="1.03" vaporized=""/>
    <tripinfo id="f_0_9.8" depart="28.00" departLane="G9G8_0" departPos="5.10" departSpeed="0.00" departDelay="0.00" arrival="167.00" arrivalLane="G7G6_0" arrivalPos="492.80" arrivalSpeed="14.26" duration="139.00" routeLength="1494.90" waitingTime="18.00" waitingCount="1" stopTime="0.00" timeLoss="34.90" rerouteNo="0" devices="tripinfo_f_0_9.8" vType="DEFAULT_VEHTYPE" speedFactor="1.04" vaporized=""/>
    <tripinfo id="f_0_16.6" depart="24.00" departLane="D2D3_0" departPos="5.10" departSpeed="0.00" departDelay="0.00" arrival="172.00" arrivalLane="D4D5_0" arrivalPos="492.80" arrivalSpeed="11.56" duration="148.00" routeLength="1494.90" waitingTime="13.00" waitingCount="1" stopTime="0.00" timeLoss="27.74" rerouteNo="0" devices="tripinfo_f_0_16.6" vType="DEFAULT_VEHTYPE" speedFactor="0.90" vaporized=""/>
    <tripinfo id="f_0_16.7" depart="27.00" departLane="D2D3_0" departPos="5.10" departSpeed="0.00" departDelay="1.00" arrival="173.00" arrivalLane="D4D5_0" arrivalPos="492.80" arrivalSpeed="14.28" duration="146.00" routeLength="1494.90" waitingTime="12.00" waitingCount="1" stopTime="0.00" timeLoss="47.32" rerouteNo="0" devices="tripinfo_f_0_16.7" vType="DEFAULT_VEHTYPE" speedFactor="1.09" vaporized=""/>
    <tripinfo id="f_0_8.6" depart="18.00" departLane="G5G6_0" departPos="5.10" departSpeed="0.00" departDelay="6.00" arrival="174.00" arrivalLane="G7G8_0" arrivalPos="491.30" arrivalSpeed="11.50" duration="156.00" routeLength="1493.50" waitingTime="18.00" waitingCount="1" stopTime="0.00" timeLoss="32.11" rerouteNo="0" devices="tripinfo_f_0_8.6" vType="DEFAULT_VEHTYPE" speedFactor="0.87" vaporized=""/>
    <tripinfo id="f_0_1.0" depart="1.00" departLane="F7E7_0" departPos="5.10" departSpeed="0.00" departDelay="0.00" arrival="175.00" arrivalLane="C7B7_0" arrivalPos="491.30" arrivalSpeed="12.90" duration="174.00" routeLength="1993.50" waitingTime="16.00" waitingCount="1" stopTime="0.00" timeLoss="31.92" rerouteNo="0" devices="tripinfo_f_0_1.0" vType="DEFAULT_VEHTYPE" speedFactor="1.01" vaporized=""/>
    <tripinfo id="f_0_8.7" depart="21.00" departLane="G5G6_0" departPos="5.10" departSpeed="0.00" departDelay="6.00" arrival="175.00" arrivalLane="G7G8_0" arrivalPos="491.30" arrivalSpeed="13.95" duration="154.00" routeLength="1493.50" waitingTime="17.00" waitingCount="1" stopTime="0.00" timeLoss="62.65" rerouteNo="0" devices="tripinfo_f_0_8.7" vType="DEFAULT_VEHTYPE" speedFactor="1.18" vaporized=""/>
    <tripinfo id="f_0_16.8" depart="30.00" departLane="D2D3_0" departPos="5.10" departSpeed="0.00" departDelay="2.00" arrival="175.00" arrivalLane="D4D5_0" arrivalPos="492.80" arrivalSpeed="14.26" duration="145.00" routeLength="1494.90" waitingTime="11.00" waitingCount="1" stopTime="0.00" timeLoss="41.46" rerouteNo="0" devices="tripinfo_f_0_16.8" vType="DEFAULT_VEHTYPE" speedFactor="1.04" vaporized=""/>
    <tripinfo id="f_0_1.1" depart="7.00" departLane="F7E7_0" departPos="5.10" departSpeed="0.00" departDelay="0.00" arrival="178.00" arrivalLane="C7B7_0" arrivalPos="491.30" arrivalSpeed="13.38" duration="171.00" routeLength="1993.50" waitingTime="10.00" waitingCount="1" stopTime="0.00" timeLoss="25.84" rerouteNo="0" devices="tripinfo_f_0_1.1" vType="DEFAULT_VEHTYPE" speedFactor="0.99" vaporized=""/>
    <tripinfo id="f_0_1.2" depart="11.00" departLane="F7E7_0" departPos="5.10" departSpeed="0.00" departDelay="0.00" arrival="216.00" arrivalLane="C7B7_0" arrivalPos="491.30" arrivalSpeed="12.36" duration="205.00" routeLength="1993.50" waitingTime="41.00" waitingCount="1" stopTime="0.00" timeLoss="57.26" rerouteNo="0" devices="tripinfo_f_0_1.2" vType="DEFAULT_VEHTYPE" speedFactor="0.97" vaporized=""/>
    <tripinfo id="f_0_0.0" depart="5.00" departLane="A7B7_0" departPos="5.10" departSpeed="0.00" departDelay="0.00" arrival="218.00" arrivalLane="D7E7_0" arrivalPos="492.80" arrivalSpeed="12.84" duration="213.00" routeLength="1994.90" waitingTime="45.00" waitingCount="1" stopTime="0.00" timeLoss="59.53" rerouteNo="0" devices="tripinfo_f_0_0.0" vType="DEFAULT_VEHTYPE" speedFactor="0.94" vaporized=""/>
    <tripinfo id="f_0_8.8" depart="32.00" departLane="G5G6_0" departPos="5.10" departSpeed="0.00" departDelay="0.00" arrival="221.00" arrivalLane="G7G8_0" arrivalPos="491.30" arrivalSpeed="13.23" duration="189.00" routeLength="1493.50" waitingTime="57.00" waitingCount="2" stopTime="0.00" timeLoss="81.16" rerouteNo="0" devices="tripinfo_f_0_8.8" vType="DEFAULT_VEHTYPE" speedFactor="1.00" vaporized=""/>
    <tripinfo id="f_0_9.9" depart="31.00" departLane="G9G8_0" departPos="5.10" departSpeed="0.00" departDelay="1.00" arrival="225.00" arrivalLane="G7G6_0" arrivalPos="492.80" arrivalSpeed="12.34" duration="194.00" routeLength="1494.90" waitingTime="53.00" waitingCount="2" stopTime="0.00" timeLoss="73.69" rerouteNo="0" devices="tripinfo_f_0_9.9" vType="DEFAULT_VEHTYPE" speedFactor="0.90" vaporized=""/>
    <tripinfo id="f_0_16.9" depart="33.00" departLane="D2D3_0" departPos="5.10" departSpeed="0.00" departDelay="3.00" arrival="226.00" arrivalLane="D4D5_0" arrivalPos="492.80" arrivalSpeed="11.78" duration="193.00" routeLength="1494.90" waitingTime="47.00" waitingCount="2" stopTime="0.00" timeLoss="69.62" rerouteNo="0" devices="tripinfo_f_0_16.9" vType="DEFAULT_VEHTYPE" speedFactor="0.88" vaporized=""/>
    <tripinfo id="f_0_8.9" depart="38.00" departLane="G5G6_0" departPos="5.10" departSpeed="0.00" departDelay="0.00" arrival="226.00" arrivalLane="G7G8_0" arrivalPos="491.30" arrivalSpeed="12.38" duration="188.00" routeLength="1493.50" waitingTime="48.00" waitingCount="2" stopTime="0.00" timeLoss="70.14" rerouteNo="0" devices="tripinfo_f_0_8.9" vType="DEFAULT_VEHTYPE" speedFactor="0.91" vaporized=""/>
    <tripinfo id="f_0_9.10" depart="34.00" departLane="G9G8_0" departPos="5.10" departSpeed="0.00" departDelay="1.00" arrival="227.00" arrivalLane="G7G6_0" arrivalPos="492.80" arrivalSpeed="11.74" duration="193.00" routeLength="1494.90" waitingTime="49.00" waitingCount="2" stopTime="0.00" timeLoss="72.59" rerouteNo="0" devices="tripinfo_f_0_9.10" vType="DEFAULT_VEHTYPE" speedFactor="0.90" vaporized=""/>
    <tripinfo id="f_0_17.7" depart="32.00" departLane="D6D5_0" departPos="5.10" departSpeed="0.00" departDelay="2.00" arrival="228.00" arrivalLane="D4D3_0" arrivalPos="491.30" arrivalSpeed="11.56" duration="196.00" routeLength="1493.50" waitingTime="47.00" waitingCount="2" stopTime="0.00" timeLoss="69.02" rerouteNo="0" devices="tripinfo_f_0_17.7" vType="DEFAULT_VEHTYPE" speedFactor="0.85" vaporized=""/>
    <tripinfo id="f_0_16.10" depart="36.00" departLane="D2D3_0" departPos="5.10" departSpeed="0.00" departDelay="5.00" arrival="228.00" arrivalLane="D4D5_0" arrivalPos="492.80" arrivalSpeed="13.20" duration="192.00" routeLength="1494.90" waitingTime="47.00" waitingCount="2" stopTime="0.00" timeLoss="85.23" rerouteNo="0" devices="tripinfo_f_0_16.10" vType="DEFAULT_VEHTYPE" speedFactor="1.02" vaporized=""/>
    <tripinfo id="f_0_9.11" depart="37.00" departLane="G9G8_0" departPos="5.10" departSpeed="0.00" departDelay="3.00" arrival="228.00" arrivalLane="G7G6_0" arrivalPos="492.80" arrivalSpeed="13.76" duration="191.00" routeLength="1494.90" waitingTime="50.00" waitingCount="2" stopTime="0.00" timeLoss="85.79" rerouteNo="0" devices="tripinfo_f_0_9.11" vType="DEFAULT_VEHTYPE" speedFactor="1.02" vaporized=""/>
    <tripinfo id="f_0_8.10" depart="47.00" departLane="G5G6_0" departPos="5.10" departSpeed="0.00" departDelay="0.00" arrival="228.00" arrivalLane="G7G8_0" arrivalPos="491.30" arrivalSpeed="12.96" duration="181.00" routeLength="1493.50" waitingTime="43.00" waitingCount="2" stopTime="0.00" timeLoss="74.66" rerouteNo="0" devices="tripinfo_f_0_8.10" vType="DEFAULT_VEHTYPE" speedFactor="1.02" vaporized=""/>
    <tripinfo id="f_0_16.11" depart="39.00" departLane="D2D3_0" departPos="5.10" departSpeed="0.00" departDelay="7.00" arrival="229.00" arrivalLane="D4D5_0" arrivalPos="492.80" arrivalSpeed="12.97" duration="190.00" routeLength="1494.90" waitingTime="45.00" waitingCount="2" stopTime="0.00" timeLoss="81.76" rerouteNo="0" devices="tripinfo_f_0_16.11" vType="DEFAULT_VEHTYPE" speedFactor="1.00" vaporized=""/>
    <tripinfo id="f_0_17.8" depart="35.00" departLane="D6D5_0" departPos="5.10" departSpeed="0.00" departDelay="2.00" arrival="230.00" arrivalLane="D4D3_0" arrivalPos="491.30" arrivalSpeed="14.67" duration="195.00" routeLength="1493.50" waitingTime="46.00" waitingCount="2" stopTime="0.00" timeLoss="100.08" rerouteNo="0" devices="tripinfo_f_0_17.8" vType="DEFAULT_VEHTYPE" speedFactor="1.14" vaporized=""/>
    <tripinfo id="f_0_9.12" depart="40.00" departLane="G9G8_0" departPos="5.10" departSpeed="0.00" departDelay="4.00" arrival="230.00" arrivalLane="G7G6_0" arrivalPos="492.80" arrivalSpeed="12.89" duration="190.00" routeLength="1494.90" waitingTime="44.00" waitingCount="2" stopTime="0.00" timeLoss="83.81" rerouteNo="0" devices="tripinfo_f_0_9.12" vType="DEFAULT_VEHTYPE" speedFactor="1.02" vaporized=""/>
    <tripinfo id="f_0_8.11" depart="51.00" departLane="G5G6_0" departPos="5.10" departSpeed="0.00" departDelay="0.00" arrival="230.00" arrivalLane="G7G8_0" arrivalPos="491.30" arrivalSpeed="12.69" duration="179.00" routeLength="1493.50" waitingTime="40.00" waitingCount="1" stopTime="0.00" timeLoss="68.11" rerouteNo="0" devices="tripinfo_f_0_8.11" vType="DEFAULT_VEHTYPE" speedFactor="0.98" vaporized=""/>
    <tripinfo id="f_0_17.9" depart="38.00" departLane="D6D5_0" departPos="5.10" departSpeed="0.00" departDelay="4.00" arrival="231.00" arrivalLane="D4D3_0" arrivalPos="491.30" arrivalSpeed="13.01" duration="193.00" routeLength="1493.50" waitingTime="43.00" waitingCount="2" stopTime="0.00" timeLoss="82.09" rerouteNo="0" devices="tripinfo_f_0_17.9" vType="DEFAULT_VEHTYPE" speedFactor="0.97" vaporized=""/>
    <tripinfo id="f_0_16.12" depart="43.00" departLane="D2D3_0" departPos="5.10" departSpeed="0.00" departDelay="5.00" arrival="231.00" arrivalLane="D4D5_0" arrivalPos="492.80" arrivalSpeed="13.28" duration="188.00" routeLength="1494.90" waitingTime="44.00" waitingCount="2" stopTime="0.00" timeLoss="84.06" rerouteNo="0" devices="tripinfo_f_0_16.12" vType="DEFAULT_VEHTYPE" speedFactor="1.04" vaporized=""/>
    <tripinfo id="f_0_8.12" depart="54.00" departLane="G5G6_0" departPos="5.10" departSpeed="0.00" departDelay="2.00" arrival="231.00" arrivalLane="G7G8_0" arrivalPos="491.30" arrivalSpeed="13.72" duration="177.00" routeLength="1493.50" waitingTime="41.00" waitingCount="1" stopTime="0.00" timeLoss="73.78" rerouteNo="0" devices="tripinfo_f_0_8.12" vType="DEFAULT_VEHTYPE" speedFactor="1.04" vaporized=""/>
    <tripinfo id="f_0_9.13" depart="43.00" departLane="G9G8_0" departPos="5.10" departSpeed="0.00" departDelay="3.00" arrival="232.00" arrivalLane="G7G6_0" arrivalPos="492.80" arrivalSpeed="12.38" duration="189.00" routeLength="1494.90" waitingTime="44.00" waitingCount="2" stopTime="0.00" timeLoss="78.02" rerouteNo="0" devices="tripinfo_f_0_9.13" vType="DEFAULT_VEHTYPE" speedFactor="0.97" vaporized=""/>
    <tripinfo id="f_0_17.10" depart="41.00" departLane="D6D5_0" departPos="5.10" departSpeed="0.00" departDelay="5.00" arrival="233.00" arrivalLane="D4D3_0" arrivalPos="491.30" arrivalSpeed="13.59" duration="192.00" routeLength="1493.50" waitingTime="43.00" waitingCount="2" stopTime="0.00" timeLoss="82.77" rerouteNo="0" devices="tripinfo_f_0_17.10" vType="DEFAULT_VEHTYPE" speedFactor="0.99" vaporized=""/>
    <tripinfo id="f_0_16.13" depart="46.00" departLane="D2D3_0" departPos="5.10" departSpeed="0.00" departDelay="6.00" arrival="233.00" arrivalLane="D4D5_0" arrivalPos="492.80" arrivalSpeed="12.50" duration="187.00" routeLength="1494.90" waitingTime="43.00" waitingCount="2" stopTime="0.00" timeLoss="71.93" rerouteNo="0" devices="tripinfo_f_0_16.13" vType="DEFAULT_VEHTYPE" speedFactor="0.94" vaporized=""/>
    <tripinfo id="f_0_8.13" depart="62.00" departLane="G5G6_0" departPos="5.10" departSpeed="0.00" departDelay="0.00" arrival="233.00" arrivalLane="G7G8_0" arrivalPos="491.30" arrivalSpeed="12.91" duration="171.00" routeLength="1493.50" waitingTime="39.00" waitingCount="1" stopTime="0.00" timeLoss="58.71" rerouteNo="0" devices="tripinfo_f_0_8.13" vType="DEFAULT_VEHTYPE" speedFactor="0.96" vaporized=""/>
    <tripinfo id="f_0_9.14" depart="46.00" departLane="G9G8_0" departPos="5.10" departSpeed="0.00" departDelay="2.00" arrival="234.00" arrivalLane="G7G6_0" arrivalPos="492.80" arrivalSpeed="13.67" duration="188.00" routeLength="1494.90" waitingTime="44.00" waitingCount="3" stopTime="0.00" timeLoss="80.34" rerouteNo="0" devices="tripinfo_f_0_9.14" vType="DEFAULT_VEHTYPE" speedFactor="1.01" vaporized=""/>
    <tripinfo id="f_0_17.11" depart="44.00" departLane="D6D5_0" departPos="5.10" departSpeed="0.00" departDelay="7.00" arrival="235.00" arrivalLane="D4D3_0" arrivalPos="491.30" arrivalSpeed="11.48" duration="191.00" routeLength="1493.50" waitingTime="42.00" waitingCount="2" stopTime="0.00" timeLoss="68.88" rerouteNo="0" devices="tripinfo_f_0_17.11" vType="DEFAULT_VEHTYPE" speedFactor="0.88" vaporized=""/>
    <tripinfo id="f_0_16.14" depart="49.00" departLane="D2D3_0" departPos="5.10" departSpeed="0.00" departDelay="8.00" arrival="235.00" arrivalLane="D4D5_0" arrivalPos="492.80" arrivalSpeed="13.01" duration="186.00" routeLength="1494.90" waitingTime="41.00" waitingCount="3" stopTime="0.00" timeLoss="75.85" rerouteNo="0" devices="tripinfo_f_0_16.14" vType="DEFAULT_VEHTYPE" speedFactor="0.98" vaporized=""/>
    <tripinfo id="f_0_9.15" depart="50.00" departLane="G9G8_0" departPos="5.10" departSpeed="0.00" departDelay="0.00" arrival="235.00" arrivalLane="G7G6_0" arrivalPos="492.80" arrivalSpeed="14.73" duration="185.00" routeLength="1494.90" waitingTime="42.00" waitingCount="2" stopTime="0.00" timeLoss="91.08" rerouteNo="0" devices="tripinfo_f_0_9.15" vType="DEFAULT_VEHTYPE" speedFactor="1.15" vaporized=""/>
    <tripinfo id="f_0_16.15" depart="52.00" departLane="D2D3_0" departPos="5.10" departSpeed="0.00" departDelay="7.00" arrival="236.00" arrivalLane="D4D5_0" arrivalPos="492.80" arrivalSpeed="13.51" duration="184.00" routeLength="1494.90" waitingTime="40.00" waitingCount="2" stopTime="0.00" timeLoss="79.78" rerouteNo="0" devices="tripinfo_f_0_16.15" vType="DEFAULT_VEHTYPE" speedFactor="1.03" vaporized=""/>
    <tripinfo id="f_0_17.12" depart="47.00" departLane="D6D5_0" departPos="5.10" departSpeed="0.00" departDelay="7.00" arrival="237.00" arrivalLane="D4D3_0" arrivalPos="491.30" arrivalSpeed="14.21" duration="190.00" routeLength="1493.50" waitingTime="40.00" waitingCount="1" stopTime="0.00" timeLoss="87.55" rerouteNo="0" devices="tripinfo_f_0_17.12" vType="DEFAULT_VEHTYPE" speedFactor="1.06" vaporized=""/>
    <tripinfo id="f_0_9.16" depart="53.00" departLane="G9G8_0" departPos="5.10" departSpeed="0.00" departDelay="1.00" arrival="237.00" arrivalLane="G7G6_0" arrivalPos="492.80" arrivalSpeed="13.09" duration="184.00" routeLength="1494.90" waitingTime="41.00" waitingCount="2" stopTime="0.00" timeLoss="76.76" rerouteNo="0" devices="tripinfo_f_0_9.16" vType="DEFAULT_VEHTYPE" speedFactor="1.01" vaporized=""/>
    <tripinfo id="f_0_16.16" depart="55.00" departLane="D2D3_0" departPos="5.10" departSpeed="0.00" departDelay="9.00" arrival="238.00" arrivalLane="D4D5_0" arrivalPos="492.80" arrivalSpeed="12.76" duration="183.00" routeLength="1494.90" waitingTime="38.00" waitingCount="3" stopTime="0.00" timeLoss="74.75" rerouteNo="0" devices="tripinfo_f_0_16.16" vType="DEFAULT_VEHTYPE" speedFactor="1.00" vaporized=""/>
    <tripinfo id="f_0_17.13" depart="50.00" departLane="D6D5_0" departPos="5.10" departSpeed="0.00" departDelay="7.00" arrival="239.00" arrivalLane="D4D3_0" arrivalPos="491.30" arrivalSpeed="14.20" duration="189.00" routeLength="1493.50" waitingTime="39.00" waitingCount="1" stopTime="0.00" timeLoss="84.09" rerouteNo="0" devices="tripinfo_f_0_17.13" vType="DEFAULT_VEHTYPE" speedFactor="1.03" vaporized=""/>
    <tripinfo id="f_0_9.17" depart="56.00" departLane="G9G8_0" departPos="5.10" departSpeed="0.00" departDelay="2.00" arrival="239.00" arrivalLane="G7G6_0" arrivalPos="492.80" arrivalSpeed="12.35" duration="183.00" routeLength="1494.90" waitingTime="36.00" waitingCount="2" stopTime="0.00" timeLoss="66.07" rerouteNo="0" devices="tripinfo_f_0_9.17" vType="DEFAULT_VEHTYPE" speedFactor="0.92" vaporized=""/>
    <tripinfo id="f_0_17.14" depart="53.00" departLane="D6D5_0" departPos="5.10" departSpeed="0.00" departDelay="2.00" arrival="240.00" arrivalLane="D4D3_0" arrivalPos="491.30" arrivalSpeed="12.70" duration="187.00" routeLength="1493.50" waitingTime="39.00" waitingCount="1" stopTime="0.00" timeLoss="79.63" rerouteNo="0" devices="tripinfo_f_0_17.14" vType="DEFAULT_VEHTYPE" speedFactor="1.00" vaporized=""/>
    <tripinfo id="f_0_16.17" depart="58.00" departLane="D2D3_0" departPos="5.10" departSpeed="0.00" departDelay="6.00" arrival="240.00" arrivalLane="D4D5_0" arrivalPos="492.80" arrivalSpeed="13.37" duration="182.00" routeLength="1494.90" waitingTime="35.00" waitingCount="1" stopTime="0.00" timeLoss="75.97" rerouteNo="0" devices="tripinfo_f_0_16.17" vType="DEFAULT_VEHTYPE" speedFactor="1.02" vaporized=""/>
    <tripinfo id="f_0_16.18" depart="61.00" departLane="D2D3_0" departPos="5.10" departSpeed="0.00" departDelay="6.00" arrival="241.00" arrivalLane="D4D5_0" arrivalPos="492.80" arrivalSpeed="13.61" duration="180.00" routeLength="1494.90" waitingTime="35.00" waitingCount="1" stopTime="0.00" timeLoss="78.13" rerouteNo="0" devices="tripinfo_f_0_16.18" vType="DEFAULT_VEHTYPE" speedFactor="1.06" vaporized=""/>
    <tripinfo id="f_0_9.18" depart="59.00" departLane="G9G8_0" departPos="5.10" departSpeed="0.00" departDelay="2.00" arrival="241.00" arrivalLane="G7G6_0" arrivalPos="492.80" arrivalSpeed="14.59" duration="182.00" routeLength="1494.90" waitingTime="36.00" waitingCount="2" stopTime="0.00" timeLoss="80.32" rerouteNo="0" devices="tripinfo_f_0_9.18" vType="DEFAULT_VEHTYPE" speedFactor="1.06" vaporized=""/>