<?xml version="1.0" encoding="UTF-8"?>

<!-- generated on 2024-05-15 22:04:24 by Eclipse SUMO sumo Version 1.12.0
<configuration xmlns:xsi="http://www.w3.org/2001/XMLSchema-instance" xsi:noNamespaceSchemaLocation="http://sumo.dlr.de/xsd/sumoConfiguration.xsd">

    <input>
        <net-file value="double_500_actuated.net.xml"/>
        <route-files value="double_4.rou.xml"/>
    </input>

    <output>
        <summary-output value="control_summaries//summary_double_actuated_500_4.xml"/>
        <tripinfo-output value="control_summaries//tripinfos_double_actuated_500_4.xml"/>
    </output>

    <processing>
        <time-to-teleport value="-1"/>
    </processing>

    <traci_server>
        <remote-port value="59517"/>
    </traci_server>

</configuration>
-->

<tripinfos xmlns:xsi="http://www.w3.org/2001/XMLSchema-instance" xsi:noNamespaceSchemaLocation="http://sumo.dlr.de/xsd/tripinfo_file.xsd">
    <tripinfo id="f_1_17.0" depart="5.00" departLane="D6D5_0" departPos="5.10" departSpeed="0.00" departDelay="0.00" arrival="116.00" arrivalLane="D4D3_0" arrivalPos="491.30" arrivalSpeed="16.01" duration="111.00" routeLength="1493.50" waitingTime="3.00" waitingCount="1" stopTime="0.00" timeLoss="18.34" rerouteNo="0" devices="tripinfo_f_1_17.0" vType="DEFAULT_VEHTYPE" speedFactor="1.17" vaporized=""/>
    <tripinfo id="f_1_14.0" depart="1.00" departLane="C2C3_0" departPos="5.10" departSpeed="0.00" departDelay="0.00" arrival="118.00" arrivalLane="C4C5_0" arrivalPos="492.80" arrivalSpeed="14.99" duration="117.00" routeLength="1494.90" waitingTime="3.00" waitingCount="1" stopTime="0.00" timeLoss="17.92" rerouteNo="0" devices="tripinfo_f_1_14.0" vType="DEFAULT_VEHTYPE" speedFactor="1.09" vaporized=""/>
    <tripinfo id="f_0_2.0" depart="0.00" departLane="C5C6_0" departPos="5.10" departSpeed="0.00" departDelay="0.00" arrival="119.00" arrivalLane="C7C8_0" arrivalPos="491.30" arrivalSpeed="13.48" duration="119.00" routeLength="1493.50" waitingTime="4.00" waitingCount="1" stopTime="0.00" timeLoss="16.68" rerouteNo="0" devices="tripinfo_f_0_2.0" vType="DEFAULT_VEHTYPE" speedFactor="1.06" vaporized=""/>
    <tripinfo id="f_1_16.0" depart="0.00" departLane="D2D3_0" departPos="5.10" departSpeed="0.00" departDelay="0.00" arrival="119.00" arrivalLane="D4D5_0" arrivalPos="492.80" arrivalSpeed="13.12" duration="119.00" routeLength="1494.90" waitingTime="1.00" waitingCount="1" stopTime="0.00" timeLoss="14.36" rerouteNo="0" devices="tripinfo_f_1_16.0" vType="DEFAULT_VEHTYPE" speedFactor="1.03" vaporized=""/>
    <tripinfo id="f_1_10.0" depart="0.00" departLane="H5H6_0" departPos="5.10" departSpeed="0.00" departDelay="0.00" arrival="120.00" arrivalLane="H7H8_0" arrivalPos="491.30" arrivalSpeed="14.74" duration="120.00" routeLength="1493.50" waitingTime="7.00" waitingCount="1" stopTime="0.00" timeLoss="20.35" rerouteNo="0" devices="tripinfo_f_1_10.0" vType="DEFAULT_VEHTYPE" speedFactor="1.08" vaporized=""/>
    <tripinfo id="f_1_21.0" depart="4.00" departLane="G6G5_0" departPos="5.10" departSpeed="0.00" departDelay="0.00" arrival="120.00" arrivalLane="G4G3_0" arrivalPos="491.30" arrivalSpeed="16.01" duration="116.00" routeLength="1493.50" waitingTime="12.00" waitingCount="1" stopTime="0.00" timeLoss="23.93" rerouteNo="0" devices="tripinfo_f_1_21.0" vType="DEFAULT_VEHTYPE" speedFactor="1.18" vaporized=""/>
    <tripinfo id="f_1_16.1" depart="6.00" departLane="D2D3_0" departPos="5.10" departSpeed="0.00" departDelay="0.00" arrival="121.00" arrivalLane="D4D5_0" arrivalPos="492.80" arrivalSpeed="14.17" duration="115.00" routeLength="1494.90" waitingTime="0.00" waitingCount="0" stopTime="0.00" timeLoss="16.86" rerouteNo="0" devices="tripinfo_f_1_16.1" vType="DEFAULT_VEHTYPE" speedFactor="1.10" vaporized=""/>
    <tripinfo id="f_1_17.1" depart="8.00" departLane="D6D5_0" departPos="5.10" departSpeed="0.00" departDelay="1.00" arrival="121.00" arrivalLane="D4D3_0" arrivalPos="491.30" arrivalSpeed="14.31" duration="113.00" routeLength="1493.50" waitingTime="0.00" waitingCount="0" stopTime="0.00" timeLoss="9.65" rerouteNo="0" devices="tripinfo_f_1_17.1" vType="DEFAULT_VEHTYPE" speedFactor="1.04" vaporized=""/>
    <tripinfo id="f_1_23.0" depart="5.00" departLane="H6H5_0" departPos="5.10" departSpeed="0.00" departDelay="0.00" arrival="122.00" arrivalLane="H4H3_0" arrivalPos="491.30" arrivalSpeed="13.64" duration="117.00" routeLength="1493.50" waitingTime="0.00" waitingCount="0" stopTime="0.00" timeLoss="8.34" rerouteNo="0" devices="tripinfo_f_1_23.0" vType="DEFAULT_VEHTYPE" speedFactor="0.99" vaporized=""/>
    <tripinfo id="f_0_5.0" depart="0.00" departLane="D9D8_0" departPos="5.10" departSpeed="0.00" departDelay="0.00" arrival="123.00" arrivalLane="D7D6_0" arrivalPos="492.80" arrivalSpeed="12.95" duration="123.00" routeLength="1494.90" waitingTime="0.00" waitingCount="0" stopTime="0.00" timeLoss="8.22" rerouteNo="0" devices="tripinfo_f_0_5.0" vType="DEFAULT_VEHTYPE" speedFactor="0.94" vaporized=""/>
    <tripinfo id="f_1_16.2" depart="9.00" departLane="D2D3_0" departPos="5.10" departSpeed="0.00" departDelay="2.00" arrival="123.00" arrivalLane="D4D5_0" arrivalPos="492.80" arrivalSpeed="14.31" duration="114.00" routeLength="1494.90" waitingTime="0.00" waitingCount="0" stopTime="0.00" timeLoss="9.70" rerouteNo="0" devices="tripinfo_f_1_16.2" vType="DEFAULT_VEHTYPE" speedFactor="1.04" vaporized=""/>
    <tripinfo id="f_1_17.2" depart="11.00" departLane="D6D5_0" departPos="5.10" departSpeed="0.00" departDelay="3.00" arrival="123.00" arrivalLane="D4D3_0" arrivalPos="491.30" arrivalSpeed="16.09" duration="112.00" routeLength="1493.50" waitingTime="0.00" waitingCount="0" stopTime="0.00" timeLoss="19.25" rerouteNo="0" devices="tripinfo_f_1_17.2" vType="DEFAULT_VEHTYPE" speedFactor="1.17" vaporized=""/>
    <tripinfo id="f_0_2.1" depart="3.00" departLane="C5C6_0" departPos="5.10" departSpeed="0.00" departDelay="0.00" arrival="124.00" arrivalLane="C7C8_0" arrivalPos="491.30" arrivalSpeed="13.42" duration="121.00" routeLength="1493.50" waitingTime="0.00" waitingCount="0" stopTime="0.00" timeLoss="9.79" rerouteNo="0" devices="tripinfo_f_0_2.1" vType="DEFAULT_VEHTYPE" speedFactor="0.98" vaporized=""/>
    <tripinfo id="f_1_23.1" depart="12.00" departLane="H6H5_0" departPos="5.10" departSpeed="0.00" departDelay="0.00" arrival="124.00" arrivalLane="H4H3_0" arrivalPos="491.30" arrivalSpeed="13.40" duration="112.00" routeLength="1493.50" waitingTime="0.00" waitingCount="0" stopTime="0.00" timeLoss="9.27" rerouteNo="0" devices="tripinfo_f_1_23.1" vType="DEFAULT_VEHTYPE" speedFactor="1.06" vaporized=""/>
    <tripinfo id="f_1_21.1" depart="16.00" departLane="G6G5_0" departPos="5.10" departSpeed="0.00" departDelay="0.00" arrival="124.00" arrivalLane="G4G3_0" arrivalPos="491.30" arrivalSpeed="15.14" duration="108.00" routeLength="1493.50" waitingTime="0.00" waitingCount="0" stopTime="0.00" timeLoss="8.87" rerouteNo="0" devices="tripinfo_f_1_21.1" vType="DEFAULT_VEHTYPE" speedFactor="1.09" vaporized=""/>
    <tripinfo id="f_1_9.0" depart="1.00" departLane="G9G8_0" departPos="5.10" departSpeed="0.00" departDelay="0.00" arrival="125.00" arrivalLane="G7G6_0" arrivalPos="492.80" arrivalSpeed="12.17" duration="124.00" routeLength="1494.90" waitingTime="0.00" waitingCount="0" stopTime="0.00" timeLoss="8.32" rerouteNo="0" devices="tripinfo_f_1_9.0" vType="DEFAULT_VEHTYPE" speedFactor="0.94" vaporized=""/>
    <tripinfo id="f_1_16.3" depart="12.00" departLane="D2D3_0" departPos="5.10" departSpeed="0.00" departDelay="1.00" arrival="125.00" arrivalLane="D4D5_0" arrivalPos="492.80" arrivalSpeed="13.76" duration="113.00" routeLength="1494.90" waitingTime="0.00" waitingCount="0" stopTime="0.00" timeLoss="8.72" rerouteNo="0" devices="tripinfo_f_1_16.3" vType="DEFAULT_VEHTYPE" speedFactor="1.04" vaporized=""/>
    <tripinfo id="f_1_14.1" depart="4.00" departLane="C2C3_0" departPos="5.10" departSpeed="0.00" departDelay="2.00" arrival="127.00" arrivalLane="C4C5_0" arrivalPos="492.80" arrivalSpeed="13.06" duration="123.00" routeLength="1494.90" waitingTime="0.00" waitingCount="0" stopTime="0.00" timeLoss="8.13" rerouteNo="0" devices="tripinfo_f_1_14.1" vType="DEFAULT_VEHTYPE" speedFactor="0.94" vaporized=""/>
    <tripinfo id="f_1_15.0" depart="2.00" departLane="C6C5_0" departPos="5.10" departSpeed="0.00" departDelay="0.00" arrival="127.00" arrivalLane="C4C3_0" arrivalPos="491.30" arrivalSpeed="12.69" duration="125.00" routeLength="1493.50" waitingTime="0.00" waitingCount="0" stopTime="0.00" timeLoss="9.26" rerouteNo="0" devices="tripinfo_f_1_15.0" vType="DEFAULT_VEHTYPE" speedFactor="0.94" vaporized=""/>
    <tripinfo id="f_1_15.1" depart="12.00" departLane="C6C5_0" departPos="5.10" departSpeed="0.00" departDelay="0.00" arrival="128.00" arrivalLane="C4C3_0" arrivalPos="491.30" arrivalSpeed="13.18" duration="116.00" routeLength="1493.50" waitingTime="0.00" waitingCount="0" stopTime="0.00" timeLoss="10.67" rerouteNo="0" devices="tripinfo_f_1_15.1" vType="DEFAULT_VEHTYPE" speedFactor="1.02" vaporized=""/>
    <tripinfo id="f_1_14.2" depart="9.00" departLane="C2C3_0" departPos="5.10" departSpeed="0.00" departDelay="0.00" arrival="129.00" arrivalLane="C4C5_0" arrivalPos="492.80" arrivalSpeed="15.02" duration="120.00" routeLength="1494.90" waitingTime="0.00" waitingCount="0" stopTime="0.00" timeLoss="24.90" rerouteNo="0" devices="tripinfo_f_1_14.2" vType="DEFAULT_VEHTYPE" speedFactor="1.14" vaporized=""/>
    <tripinfo id="f_1_15.2" depart="15.00" departLane="C6C5_0" departPos="5.10" departSpeed="0.00" departDelay="0.00" arrival="130.00" arrivalLane="C4C3_0" arrivalPos="491.30" arrivalSpeed="13.53" duration="115.00" routeLength="1493.50" waitingTime="0.00" waitingCount="0" stopTime="0.00" timeLoss="11.32" rerouteNo="0" devices="tripinfo_f_1_15.2" vType="DEFAULT_VEHTYPE" speedFactor="1.04" vaporized=""/>
    <tripinfo id="f_1_14.3" depart="15.00" departLane="C2C3_0" departPos="5.10" departSpeed="0.00" departDelay="0.00" arrival="131.00" arrivalLane="C4C5_0" arrivalPos="492.80" arrivalSpeed="13.49" duration="116.00" routeLength="1494.90" waitingTime="0.00" waitingCount="0" stopTime="0.00" timeLoss="7.94" rerouteNo="0" devices="tripinfo_f_1_14.3" vType="DEFAULT_VEHTYPE" speedFactor="1.00" vaporized=""/>
    <tripinfo id="f_1_15.3" depart="20.00" departLane="C6C5_0" departPos="5.10" departSpeed="0.00" departDelay="0.00" arrival="132.00" arrivalLane="C4C3_0" arrivalPos="491.30" arrivalSpeed="13.70" duration="112.00" routeLength="1493.50" waitingTime="0.00" waitingCount="0" stopTime="0.00" timeLoss="10.18" rerouteNo="0" devices="tripinfo_f_1_15.3" vType="DEFAULT_VEHTYPE" speedFactor="1.06" vaporized=""/>
    <tripinfo id="f_1_14.4" depart="18.00" departLane="C2C3_0" departPos="5.10" departSpeed="0.00" departDelay="0.00" arrival="133.00" arrivalLane="C4C5_0" arrivalPos="492.80" arrivalSpeed="14.47" duration="115.00" routeLength="1494.90" waitingTime="0.00" waitingCount="0" stopTime="0.00" timeLoss="18.15" rerouteNo="0" devices="tripinfo_f_1_14.4" vType="DEFAULT_VEHTYPE" speedFactor="1.12" vaporized=""/>
    <tripinfo id="f_1_14.5" depart="21.00" departLane="C2C3_0" departPos="5.10" departSpeed="0.00" departDelay="1.00" arrival="134.00" arrivalLane="C4C5_0" arrivalPos="492.80" arrivalSpeed="14.29" duration="113.00" routeLength="1494.90" waitingTime="0.00" waitingCount="0" stopTime="0.00" timeLoss="8.83" rerouteNo="0" devices="tripinfo_f_1_14.5" vType="DEFAULT_VEHTYPE" speedFactor="1.03" vaporized=""/>
    <tripinfo id="f_1_13.0" depart="4.00" departLane="F4E4_0" departPos="5.10" departSpeed="0.00" departDelay="0.00" arrival="140.00" arrivalLane="C4B4_0" arrivalPos="491.30" arrivalSpeed="15.61" duration="136.00" routeLength="1993.50" waitingTime="0.00" waitingCount="0" stopTime="0.00" timeLoss="8.55" rerouteNo="0" devices="tripinfo_f_1_13.0" vType="DEFAULT_VEHTYPE" speedFactor="1.13" vaporized=""/>
    <tripinfo id="f_0_3.0" depart="9.00" departLane="C9C8_0" departPos="5.10" departSpeed="0.00" departDelay="0.00" arrival="142.00" arrivalLane="C7C6_0" arrivalPos="492.80" arrivalSpeed="13.16" duration="133.00" routeLength="1494.90" waitingTime="11.00" waitingCount="1" stopTime="0.00" timeLoss="24.97" rerouteNo="0" devices="tripinfo_f_0_3.0" vType="DEFAULT_VEHTYPE" speedFactor="1.00" vaporized=""/>
    <tripinfo id="f_1_21.2" depart="19.00" departLane="G6G5_0" departPos="5.10" departSpeed="0.00" departDelay="2.00" arrival="142.00" arrivalLane="G4G3_0" arrivalPos="491.30" arrivalSpeed="12.97" duration="123.00" routeLength="1493.50" waitingTime="3.00" waitingCount="1" stopTime="0.00" timeLoss="15.65" rerouteNo="0" devices="tripinfo_f_1_21.2" vType="DEFAULT_VEHTYPE" speedFactor="1.01" vaporized=""/>
    <tripinfo id="f_1_21.3" depart="22.00" departLane="G6G5_0" departPos="5.10" departSpeed="0.00" departDelay="4.00" arrival="143.00" arrivalLane="G4G3_0" arrivalPos="491.30" arrivalSpeed="15.14" duration="121.00" routeLength="1493.50" waitingTime="2.00" waitingCount="1" stopTime="0.00" timeLoss="22.70" rerouteNo="0" devices="tripinfo_f_1_21.3" vType="DEFAULT_VEHTYPE" speedFactor="1.10" vaporized=""/>
    <tripinfo id="f_0_4.0" depart="3.00" departLane="D5D6_0" departPos="5.10" departSpeed="0.00" departDelay="0.00" arrival="144.00" arrivalLane="D7D8_0" arrivalPos="491.30" arrivalSpeed="11.69" duration="141.00" routeLength="1493.50" waitingTime="6.00" waitingCount="1" stopTime="0.00" timeLoss="20.01" rerouteNo="0" devices="tripinfo_f_0_4.0" vType="DEFAULT_VEHTYPE" speedFactor="0.89" vaporized=""/>
    <tripinfo id="f_0_2.2" depart="7.00" departLane="C5C6_0" departPos="5.10" departSpeed="0.00" departDelay="0.00" arrival="145.00" arrivalLane="C7C8_0" arrivalPos="491.30" arrivalSpeed="11.54" duration="138.00" routeLength="1493.50" waitingTime="5.00" waitingCount="1" stopTime="0.00" timeLoss="18.59" rerouteNo="0" devices="tripinfo_f_0_2.2" vType="DEFAULT_VEHTYPE" speedFactor="0.90" vaporized=""/>
    <tripinfo id="f_0_3.1" depart="12.00" departLane="C9C8_0" departPos="5.10" departSpeed="0.00" departDelay="2.00" arrival="145.00" arrivalLane="C7C6_0" arrivalPos="492.80" arrivalSpeed="12.23" duration="133.00" routeLength="1494.90" waitingTime="8.00" waitingCount="1" stopTime="0.00" timeLoss="21.23" rerouteNo="0" devices="tripinfo_f_0_3.1" vType="DEFAULT_VEHTYPE" speedFactor="0.97" vaporized=""/>
    <tripinfo id="f_0_5.1" depart="3.00" departLane="D9D8_0" departPos="5.10" departSpeed="0.00" departDelay="0.00" arrival="146.00" arrivalLane="D7D6_0" arrivalPos="492.80" arrivalSpeed="10.30" duration="143.00" routeLength="1494.90" waitingTime="0.00" waitingCount="0" stopTime="0.00" timeLoss="12.37" rerouteNo="0" devices="tripinfo_f_0_5.1" vType="DEFAULT_VEHTYPE" speedFactor="0.83" vaporized=""/>
    <tripinfo id="f_0_4.1" depart="6.00" departLane="D5D6_0" departPos="5.10" departSpeed="0.00" departDelay="0.00" arrival="146.00" arrivalLane="D7D8_0" arrivalPos="491.30" arrivalSpeed="13.19" duration="140.00" routeLength="1493.50" waitingTime="6.00" waitingCount="1" stopTime="0.00" timeLoss="34.04" rerouteNo="0" devices="tripinfo_f_0_4.1" vType="DEFAULT_VEHTYPE" speedFactor="1.02" vaporized=""/>
    <tripinfo id="f_1_17.3" depart="16.00" departLane="D6D5_0" departPos="5.10" departSpeed="0.00" departDelay="0.00" arrival="146.00" arrivalLane="D4D3_0" arrivalPos="491.30" arrivalSpeed="12.25" duration="130.00" routeLength="1493.50" waitingTime="0.00" waitingCount="0" stopTime="0.00" timeLoss="9.15" rerouteNo="0" devices="tripinfo_f_1_17.3" vType="DEFAULT_VEHTYPE" speedFactor="0.89" vaporized=""/>
    <tripinfo id="f_0_3.2" depart="15.00" departLane="C9C8_0" departPos="5.10" departSpeed="0.00" departDelay="2.00" arrival="147.00" arrivalLane="C7C6_0" arrivalPos="492.80" arrivalSpeed="13.21" duration="132.00" routeLength="1494.90" waitingTime="7.00" waitingCount="1" stopTime="0.00" timeLoss="21.85" rerouteNo="0" devices="tripinfo_f_0_3.2" vType="DEFAULT_VEHTYPE" speedFactor="0.98" vaporized=""/>
    <tripinfo id="f_0_4.2" depart="9.00" departLane="D5D6_0" departPos="5.10" departSpeed="0.00" departDelay="2.00" arrival="148.00" arrivalLane="D7D8_0" arrivalPos="491.30" arrivalSpeed="13.62" duration="139.00" routeLength="1493.50" waitingTime="5.00" waitingCount="1" stopTime="0.00" timeLoss="33.78" rerouteNo="0" devices="tripinfo_f_0_4.2" vType="DEFAULT_VEHTYPE" speedFactor="1.03" vaporized=""/>
    <tripinfo id="f_0_2.3" depart="10.00" departLane="C5C6_0" departPos="5.10" departSpeed="0.00" departDelay="2.00" arrival="148.00" arrivalLane="C7C8_0" arrivalPos="491.30" arrivalSpeed="12.12" duration="138.00" routeLength="1493.50" waitingTime="3.00" waitingCount="1" stopTime="0.00" timeLoss="17.68" rerouteNo="0" devices="tripinfo_f_0_2.3" vType="DEFAULT_VEHTYPE" speedFactor="0.90" vaporized=""/>
    <tripinfo id="f_0_5.2" depart="9.00" departLane="D9D8_0" departPos="5.10" departSpeed="0.00" departDelay="0.00" arrival="148.00" arrivalLane="D7D6_0" arrivalPos="492.80" arrivalSpeed="13.42" duration="139.00" routeLength="1494.90" waitingTime="0.00" waitingCount="0" stopTime="0.00" timeLoss="30.19" rerouteNo="0" devices="tripinfo_f_0_5.2" vType="DEFAULT_VEHTYPE" speedFactor="1.00" vaporized=""/>
    <tripinfo id="f_0_3.3" depart="24.00" departLane="C9C8_0" departPos="5.10" departSpeed="0.00" departDelay="0.00" arrival="148.00" arrivalLane="C7C6_0" arrivalPos="492.80" arrivalSpeed="13.95" duration="124.00" routeLength="1494.90" waitingTime="4.00" waitingCount="1" stopTime="0.00" timeLoss="22.32" rerouteNo="0" devices="tripinfo_f_0_3.3" vType="DEFAULT_VEHTYPE" speedFactor="1.06" vaporized=""/>
    <tripinfo id="f_1_20.0" depart="0.00" departLane="G2G3_0" departPos="5.10" departSpeed="0.00" departDelay="0.00" arrival="149.00" arrivalLane="G4G5_0" arrivalPos="492.80" arrivalSpeed="10.61" duration="149.00" routeLength="1494.90" waitingTime="6.00" waitingCount="1" stopTime="0.00" timeLoss="19.28" rerouteNo="0" devices="tripinfo_f_1_20.0" vType="DEFAULT_VEHTYPE" speedFactor="0.83" vaporized=""/>
    <tripinfo id="f_1_9.1" depart="4.00" departLane="G9G8_0" departPos="5.10" departSpeed="0.00" departDelay="1.00" arrival="149.00" arrivalLane="G7G6_0" arrivalPos="492.80" arrivalSpeed="11.06" duration="145.00" routeLength="1494.90" waitingTime="7.00" waitingCount="1" stopTime="0.00" timeLoss="21.35" rerouteNo="0" devices="tripinfo_f_1_9.1" vType="DEFAULT_VEHTYPE" speedFactor="0.87" vaporized=""/>
    <tripinfo id="f_0_1.0" depart="5.00" departLane="F7E7_0" departPos="5.10" departSpeed="0.00" departDelay="0.00" arrival="149.00" arrivalLane="C7B7_0" arrivalPos="491.30" arrivalSpeed="14.93" duration="144.00" routeLength="1993.50" waitingTime="4.00" waitingCount="1" stopTime="0.00" timeLoss="18.96" rerouteNo="0" devices="tripinfo_f_0_1.0" vType="DEFAULT_VEHTYPE" speedFactor="1.15" vaporized=""/>
    <tripinfo id="f_0_5.3" depart="12.00" departLane="D9D8_0" departPos="5.10" departSpeed="0.00" departDelay="2.00" arrival="149.00" arrivalLane="D7D6_0" arrivalPos="492.80" arrivalSpeed="14.98" duration="137.00" routeLength="1494.90" waitingTime="0.00" waitingCount="0" stopTime="0.00" timeLoss="40.65" rerouteNo="0" devices="tripinfo_f_0_5.3" vType="DEFAULT_VEHTYPE" speedFactor="1.12" vaporized=""/>
    <tripinfo id="f_0_2.4" depart="13.00" departLane="C5C6_0" departPos="5.10" departSpeed="0.00" departDelay="0.00" arrival="149.00" arrivalLane="C7C8_0" arrivalPos="491.30" arrivalSpeed="12.73" duration="136.00" routeLength="1493.50" waitingTime="2.00" waitingCount="1" stopTime="0.00" timeLoss="23.22" rerouteNo="0" devices="tripinfo_f_0_2.4" vType="DEFAULT_VEHTYPE" speedFactor="0.96" vaporized=""/>
    <tripinfo id="f_1_18.0" depart="1.00" departLane="E4F4_0" departPos="5.10" departSpeed="0.00" departDelay="0.00" arrival="151.00" arrivalLane="H4I4_0" arrivalPos="491.30" arrivalSpeed="13.00" duration="150.00" routeLength="1993.50" waitingTime="0.00" waitingCount="0" stopTime="0.00" timeLoss="10.01" rerouteNo="0" devices="tripinfo_f_1_18.0" vType="DEFAULT_VEHTYPE" speedFactor="1.03" vaporized=""/>
    <tripinfo id="f_1_20.1" depart="3.00" departLane="G2G3_0" departPos="5.10" departSpeed="0.00" departDelay="2.00" arrival="151.00" arrivalLane="G4G5_0" arrivalPos="492.80" arrivalSpeed="15.31" duration="148.00" routeLength="1494.90" waitingTime="5.00" waitingCount="1" stopTime="0.00" timeLoss="51.50" rerouteNo="0" devices="tripinfo_f_1_20.1" vType="DEFAULT_VEHTYPE" speedFactor="1.12" vaporized=""/>
    <tripinfo id="f_1_9.2" depart="7.00" departLane="G9G8_0" departPos="5.10" departSpeed="0.00" departDelay="3.00" arrival="151.00" arrivalLane="G7G6_0" arrivalPos="492.80" arrivalSpeed="12.88" duration="144.00" routeLength="1494.90" waitingTime="7.00" waitingCount="1" stopTime="0.00" timeLoss="29.91" rerouteNo="0" devices="tripinfo_f_1_9.2" vType="DEFAULT_VEHTYPE" speedFactor="0.95" vaporized=""/>
    <tripinfo id="f_0_4.3" depart="12.00" departLane="D5D6_0" departPos="5.10" departSpeed="0.00" departDelay="4.00" arrival="151.00" arrivalLane="D7D8_0" arrivalPos="491.30" arrivalSpeed="12.17" duration="139.00" routeLength="1493.50" waitingTime="0.00" waitingCount="0" stopTime="0.00" timeLoss="15.61" rerouteNo="0" devices="tripinfo_f_0_4.3" vType="DEFAULT_VEHTYPE" speedFactor="0.88" vaporized=""/>
    <tripinfo id="f_1_10.1" depart="10.00" departLane="H5H6_0" departPos="5.10" departSpeed="0.00" departDelay="0.00" arrival="151.00" arrivalLane="H7H8_0" arrivalPos="491.30" arrivalSpeed="11.79" duration="141.00" routeLength="1493.50" waitingTime="10.00" waitingCount="1" stopTime="0.00" timeLoss="25.66" rerouteNo="0" devices="tripinfo_f_1_10.1" vType="DEFAULT_VEHTYPE" speedFactor="0.94" vaporized=""/>
    <tripinfo id="f_0_2.5" depart="19.00" departLane="C5C6_0" departPos="5.10" departSpeed="0.00" departDelay="0.00" arrival="151.00" arrivalLane="C7C8_0" arrivalPos="491.30" arrivalSpeed="13.03" duration="132.00" routeLength="1493.50" waitingTime="2.00" waitingCount="1" stopTime="0.00" timeLoss="19.11" rerouteNo="0" devices="tripinfo_f_0_2.5" vType="DEFAULT_VEHTYPE" speedFactor="0.96" vaporized=""/>
    <tripinfo id="f_0_4.4" depart="15.00" departLane="D5D6_0" departPos="5.10" departSpeed="0.00" departDelay="5.00" arrival="152.00" arrivalLane="D7D8_0" arrivalPos="491.30" arrivalSpeed="14.03" duration="137.00" routeLength="1493.50" waitingTime="0.00" waitingCount="0" stopTime="0.00" timeLoss="37.58" rerouteNo="0" devices="tripinfo_f_0_4.4" vType="DEFAULT_VEHTYPE" speedFactor="1.08" vaporized=""/>
    <tripinfo id="f_1_20.2" depart="6.00" departLane="G2G3_0" departPos="5.10" departSpeed="0.00" departDelay="4.00" arrival="153.00" arrivalLane="G4G5_0" arrivalPos="492.80" arrivalSpeed="13.36" duration="147.00" routeLength="1494.90" waitingTime="3.00" waitingCount="1" stopTime="0.00" timeLoss="40.48" rerouteNo="0" devices="tripinfo_f_1_20.2" vType="DEFAULT_VEHTYPE" speedFactor="1.02" vaporized=""/>
    <tripinfo id="f_1_9.3" depart="10.00" departLane="G9G8_0" departPos="5.10" departSpeed="0.00" departDelay="4.00" arrival="153.00" arrivalLane="G7G6_0" arrivalPos="492.80" arrivalSpeed="12.83" duration="143.00" routeLength="1494.90" waitingTime="7.00" waitingCount="1" stopTime="0.00" timeLoss="31.59" rerouteNo="0" devices="tripinfo_f_1_9.3" vType="DEFAULT_VEHTYPE" speedFactor="0.97" vaporized=""/>
    <tripinfo id="f_1_18.1" depart="7.00" departLane="E4F4_0" departPos="5.10" departSpeed="0.00" departDelay="0.00" arrival="153.00" arrivalLane="H4I4_0" arrivalPos="491.30" arrivalSpeed="14.13" duration="146.00" routeLength="1993.50" waitingTime="0.00" waitingCount="0" stopTime="0.00" timeLoss="13.54" rerouteNo="0" devices="tripinfo_f_1_18.1" vType="DEFAULT_VEHTYPE" speedFactor="1.09" vaporized=""/>
    <tripinfo id="f_1_10.2" depart="13.00" departLane="H5H6_0" departPos="5.10" departSpeed="0.00" departDelay="2.00" arrival="154.00" arrivalLane="H7H8_0" arrivalPos="491.30" arrivalSpeed="11.71" duration="141.00" routeLength="1493.50" waitingTime="8.00" waitingCount="1" stopTime="0.00" timeLoss="23.14" rerouteNo="0" devices="tripinfo_f_1_10.2" vType="DEFAULT_VEHTYPE" speedFactor="0.91" vaporized=""/>
    <tripinfo id="f_0_4.5" depart="18.00" departLane="D5D6_0" departPos="5.10" departSpeed="0.00" departDelay="5.00" arrival="154.00" arrivalLane="D7D8_0" arrivalPos="491.30" arrivalSpeed="14.19" duration="136.00" routeLength="1493.50" waitingTime="0.00" waitingCount="0" stopTime="0.00" timeLoss="31.51" rerouteNo="0" devices="tripinfo_f_0_4.5" vType="DEFAULT_VEHTYPE" speedFactor="1.03" vaporized=""/>
    <tripinfo id="f_1_6.0" depart="1.00" departLane="E7F7_0" departPos="5.10" departSpeed="0.00" departDelay="0.00" arrival="155.00" arrivalLane="H7I7_0" arrivalPos="491.30" arrivalSpeed="13.93" duration="154.00" routeLength="1993.50" waitingTime="1.00" waitingCount="1" stopTime="0.00" timeLoss="16.41" rerouteNo="0" devices="tripinfo_f_1_6.0" vType="DEFAULT_VEHTYPE" speedFactor="1.05" vaporized=""/>
    <tripinfo id="f_1_11.0" depart="1.00" departLane="H9H8_0" departPos="5.10" departSpeed="0.00" departDelay="0.00" arrival="155.00" arrivalLane="H7H6_0" arrivalPos="492.80" arrivalSpeed="10.81" duration="154.00" routeLength="1494.90" waitingTime="12.00" waitingCount="1" stopTime="0.00" timeLoss="28.10" rerouteNo="0" devices="tripinfo_f_1_11.0" vType="DEFAULT_VEHTYPE" speedFactor="0.86" vaporized=""/>
    <tripinfo id="f_1_20.3" depart="9.00" departLane="G2G3_0" departPos="5.10" departSpeed="0.00" departDelay="6.00" arrival="155.00" arrivalLane="G4G5_0" arrivalPos="492.80" arrivalSpeed="12.00" duration="146.00" routeLength="1494.90" waitingTime="2.00" waitingCount="1" stopTime="0.00" timeLoss="27.82" rerouteNo="0" devices="tripinfo_f_1_20.3" vType="DEFAULT_VEHTYPE" speedFactor="0.92" vaporized=""/>
    <tripinfo id="f_1_19.0" depart="1.00" departLane="J4I4_0" departPos="5.10" departSpeed="0.00" departDelay="0.00" arrival="156.00" arrivalLane="G4F4_0" arrivalPos="492.80" arrivalSpeed="14.28" duration="155.00" routeLength="1994.90" waitingTime="2.00" waitingCount="1" stopTime="0.00" timeLoss="17.82" rerouteNo="0" devices="tripinfo_f_1_19.0" vType="DEFAULT_VEHTYPE" speedFactor="1.05" vaporized=""/>
    <tripinfo id="f_1_9.4" depart="13.00" departLane="G9G8_0" departPos="5.10" departSpeed="0.00" departDelay="5.00" arrival="156.00" arrivalLane="G7G6_0" arrivalPos="492.80" arrivalSpeed="11.80" duration="143.00" routeLength="1494.90" waitingTime="1.00" waitingCount="1" stopTime="0.00" timeLoss="15.98" rerouteNo="0" devices="tripinfo_f_1_9.4" vType="DEFAULT_VEHTYPE" speedFactor="0.85" vaporized=""/>
    <tripinfo id="f_1_20.4" depart="12.00" departLane="G2G3_0" departPos="5.10" departSpeed="0.00" departDelay="1.00" arrival="156.00" arrivalLane="G4G5_0" arrivalPos="492.80" arrivalSpeed="13.64" duration="144.00" routeLength="1494.90" waitingTime="2.00" waitingCount="1" stopTime="0.00" timeLoss="38.54" rerouteNo="0" devices="tripinfo_f_1_20.4" vType="DEFAULT_VEHTYPE" speedFactor="1.02" vaporized=""/>
    <tripinfo id="f_1_11.1" depart="8.00" departLane="H9H8_0" departPos="5.10" departSpeed="0.00" departDelay="0.00" arrival="157.00" arrivalLane="H7H6_0" arrivalPos="492.80" arrivalSpeed="11.15" duration="149.00" routeLength="1494.90" waitingTime="8.00" waitingCount="1" stopTime="0.00" timeLoss="23.00" rerouteNo="0" devices="tripinfo_f_1_11.1" vType="DEFAULT_VEHTYPE" speedFactor="0.85" vaporized=""/>
    <tripinfo id="f_1_7.0" depart="0.00" departLane="J7I7_0" departPos="5.10" departSpeed="0.00" departDelay="0.00" arrival="158.00" arrivalLane="G7F7_0" arrivalPos="492.80" arrivalSpeed="13.95" duration="158.00" routeLength="1994.90" waitingTime="1.00" waitingCount="1" stopTime="0.00" timeLoss="15.66" rerouteNo="0" devices="tripinfo_f_1_7.0" vType="DEFAULT_VEHTYPE" speedFactor="1.01" vaporized=""/>
    <tripinfo id="f_1_19.1" depart="4.00" departLane="J4I4_0" departPos="5.10" departSpeed="0.00" departDelay="2.00" arrival="158.00" arrivalLane="G4F4_0" arrivalPos="492.80" arrivalSpeed="15.12" duration="154.00" routeLength="1994.90" waitingTime="2.00" waitingCount="1" stopTime="0.00" timeLoss="29.60" rerouteNo="0" devices="tripinfo_f_1_19.1" vType="DEFAULT_VEHTYPE" speedFactor="1.16" vaporized=""/>
    <tripinfo id="f_1_9.5" depart="16.00" departLane="G9G8_0" departPos="5.10" departSpeed="0.00" departDelay="6.00" arrival="158.00" arrivalLane="G7G6_0" arrivalPos="492.80" arrivalSpeed="12.99" duration="142.00" routeLength="1494.90" waitingTime="0.00" waitingCount="0" stopTime="0.00" timeLoss="32.19" rerouteNo="0" devices="tripinfo_f_1_9.5" vType="DEFAULT_VEHTYPE" speedFactor="0.99" vaporized=""/>
    <tripinfo id="f_1_20.5" depart="16.00" departLane="G2G3_0" departPos="5.10" departSpeed="0.00" departDelay="4.00" arrival="158.00" arrivalLane="G4G5_0" arrivalPos="492.80" arrivalSpeed="12.95" duration="142.00" routeLength="1494.90" waitingTime="1.00" waitingCount="1" stopTime="0.00" timeLoss="27.16" rerouteNo="0" devices="tripinfo_f_1_20.5" vType="DEFAULT_VEHTYPE" speedFactor="0.94" vaporized=""/>
    <tripinfo id="f_0_3.4" depart="27.00" departLane="C9C8_0" departPos="5.10" departSpeed="0.00" departDelay="2.00" arrival="161.00" arrivalLane="C7C6_0" arrivalPos="492.80" arrivalSpeed="14.17" duration="134.00" routeLength="1494.90" waitingTime="16.00" waitingCount="1" stopTime="0.00" timeLoss="28.83" rerouteNo="0" devices="tripinfo_f_0_3.4" vType="DEFAULT_VEHTYPE" speedFactor="1.03" vaporized=""/>
    <tripinfo id="f_0_4.6" depart="22.00" departLane="D5D6_0" departPos="5.10" departSpeed="0.00" departDelay="1.00" arrival="162.00" arrivalLane="D7D8_0" arrivalPos="491.30" arrivalSpeed="14.76" duration="140.00" routeLength="1493.50" waitingTime="20.00" waitingCount="1" stopTime="0.00" timeLoss="42.08" rerouteNo="0" devices="tripinfo_f_0_4.6" vType="DEFAULT_VEHTYPE" speedFactor="1.10" vaporized=""/>