<?xml version="1.0" encoding="UTF-8"?>

<!-- generated on 2024-05-15 22:04:13 by Eclipse SUMO sumo Version 1.12.0
<configuration xmlns:xsi="http://www.w3.org/2001/XMLSchema-instance" xsi:noNamespaceSchemaLocation="http://sumo.dlr.de/xsd/sumoConfiguration.xsd">

    <input>
        <net-file value="double_500_static_offset.net.xml"/>
        <route-files value="double_2.rou.xml"/>
    </input>

    <output>
        <summary-output value="control_summaries//summary_double_static_offset_500_2.xml"/>
        <tripinfo-output value="control_summaries//tripinfos_double_static_offset_500_2.xml"/>
    </output>

    <processing>
        <time-to-teleport value="-1"/>
    </processing>

    <traci_server>
        <remote-port value="50537"/>
    </traci_server>

</configuration>
-->

<tripinfos xmlns:xsi="http://www.w3.org/2001/XMLSchema-instance" xsi:noNamespaceSchemaLocation="http://sumo.dlr.de/xsd/tripinfo_file.xsd">
    <tripinfo id="f_0_16.0" depart="0.00" departLane="D2D3_0" departPos="5.10" departSpeed="0.00" departDelay="0.00" arrival="108.00" arrivalLane="D4D5_0" arrivalPos="492.80" arrivalSpeed="14.10" duration="108.00" routeLength="1494.90" waitingTime="0.00" waitingCount="0" stopTime="0.00" timeLoss="8.34" rerouteNo="0" devices="tripinfo_f_0_16.0" vType="DEFAULT_VEHTYPE" speedFactor="1.08" vaporized=""/>
    <tripinfo id="f_0_17.0" depart="1.00" departLane="D6D5_0" departPos="5.10" departSpeed="0.00" departDelay="0.00" arrival="112.00" arrivalLane="D4D3_0" arrivalPos="491.30" arrivalSpeed="13.62" duration="111.00" routeLength="1493.50" waitingTime="0.00" waitingCount="0" stopTime="0.00" timeLoss="7.42" rerouteNo="0" devices="tripinfo_f_0_17.0" vType="DEFAULT_VEHTYPE" speedFactor="1.05" vaporized=""/>
    <tripinfo id="f_0_10.0" depart="0.00" departLane="H5H6_0" departPos="5.10" departSpeed="0.00" departDelay="0.00" arrival="115.00" arrivalLane="H7H8_0" arrivalPos="491.30" arrivalSpeed="12.88" duration="115.00" routeLength="1493.50" waitingTime="0.00" waitingCount="0" stopTime="0.00" timeLoss="8.36" rerouteNo="0" devices="tripinfo_f_0_10.0" vType="DEFAULT_VEHTYPE" speedFactor="1.01" vaporized=""/>
    <tripinfo id="f_0_10.1" depart="9.00" departLane="H5H6_0" departPos="5.10" departSpeed="0.00" departDelay="0.00" arrival="117.00" arrivalLane="H7H8_0" arrivalPos="491.30" arrivalSpeed="16.36" duration="108.00" routeLength="1493.50" waitingTime="0.00" waitingCount="0" stopTime="0.00" timeLoss="16.05" rerouteNo="0" devices="tripinfo_f_0_10.1" vType="DEFAULT_VEHTYPE" speedFactor="1.18" vaporized=""/>
    <tripinfo id="f_0_16.1" depart="3.00" departLane="D2D3_0" departPos="5.10" departSpeed="0.00" departDelay="0.00" arrival="120.00" arrivalLane="D4D5_0" arrivalPos="492.80" arrivalSpeed="13.29" duration="117.00" routeLength="1494.90" waitingTime="0.00" waitingCount="0" stopTime="0.00" timeLoss="7.62" rerouteNo="0" devices="tripinfo_f_0_16.1" vType="DEFAULT_VEHTYPE" speedFactor="0.99" vaporized=""/>
    <tripinfo id="f_0_5.0" depart="0.00" departLane="D9D8_0" departPos="5.10" departSpeed="0.00" departDelay="0.00" arrival="124.00" arrivalLane="D7D6_0" arrivalPos="492.80" arrivalSpeed="12.81" duration="124.00" routeLength="1494.90" waitingTime="0.00" waitingCount="0" stopTime="0.00" timeLoss="8.52" rerouteNo="0" devices="tripinfo_f_0_5.0" vType="DEFAULT_VEHTYPE" speedFactor="0.94" vaporized=""/>
    <tripinfo id="f_0_14.0" depart="3.00" departLane="C2C3_0" departPos="5.10" departSpeed="0.00" departDelay="0.00" arrival="127.00" arrivalLane="C4C5_0" arrivalPos="492.80" arrivalSpeed="14.40" duration="124.00" routeLength="1494.90" waitingTime="14.00" waitingCount="1" stopTime="0.00" timeLoss="27.54" rerouteNo="0" devices="tripinfo_f_0_14.0" vType="DEFAULT_VEHTYPE" speedFactor="1.12" vaporized=""/>
    <tripinfo id="f_0_5.1" depart="4.00" departLane="D9D8_0" departPos="5.10" departSpeed="0.00" departDelay="0.00" arrival="127.00" arrivalLane="D7D6_0" arrivalPos="492.80" arrivalSpeed="13.05" duration="123.00" routeLength="1494.90" waitingTime="0.00" waitingCount="0" stopTime="0.00" timeLoss="8.31" rerouteNo="0" devices="tripinfo_f_0_5.1" vType="DEFAULT_VEHTYPE" speedFactor="0.94" vaporized=""/>
    <tripinfo id="f_0_2.0" depart="0.00" departLane="C5C6_0" departPos="5.10" departSpeed="0.00" departDelay="0.00" arrival="128.00" arrivalLane="C7C8_0" arrivalPos="491.30" arrivalSpeed="13.44" duration="128.00" routeLength="1493.50" waitingTime="15.00" waitingCount="1" stopTime="0.00" timeLoss="26.49" rerouteNo="0" devices="tripinfo_f_0_2.0" vType="DEFAULT_VEHTYPE" speedFactor="1.06" vaporized=""/>
    <tripinfo id="f_0_14.1" depart="10.00" departLane="C2C3_0" departPos="5.10" departSpeed="0.00" departDelay="0.00" arrival="128.00" arrivalLane="C4C5_0" arrivalPos="492.80" arrivalSpeed="16.17" duration="118.00" routeLength="1494.90" waitingTime="11.00" waitingCount="1" stopTime="0.00" timeLoss="26.06" rerouteNo="0" devices="tripinfo_f_0_14.1" vType="DEFAULT_VEHTYPE" speedFactor="1.17" vaporized=""/>
    <tripinfo id="f_0_3.0" depart="11.00" departLane="C9C8_0" departPos="5.10" departSpeed="0.00" departDelay="0.00" arrival="129.00" arrivalLane="C7C6_0" arrivalPos="492.80" arrivalSpeed="14.05" duration="118.00" routeLength="1494.90" waitingTime="0.00" waitingCount="0" stopTime="0.00" timeLoss="12.34" rerouteNo="0" devices="tripinfo_f_0_3.0" vType="DEFAULT_VEHTYPE" speedFactor="1.02" vaporized=""/>
    <tripinfo id="f_0_9.0" depart="3.00" departLane="G9G8_0" departPos="5.10" departSpeed="0.00" departDelay="0.00" arrival="130.00" arrivalLane="G7G6_0" arrivalPos="492.80" arrivalSpeed="13.45" duration="127.00" routeLength="1494.90" waitingTime="8.00" waitingCount="1" stopTime="0.00" timeLoss="21.58" rerouteNo="0" devices="tripinfo_f_0_9.0" vType="DEFAULT_VEHTYPE" speedFactor="1.03" vaporized=""/>
    <tripinfo id="f_0_2.1" depart="3.00" departLane="C5C6_0" departPos="5.10" departSpeed="0.00" departDelay="2.00" arrival="131.00" arrivalLane="C7C8_0" arrivalPos="491.30" arrivalSpeed="13.94" duration="128.00" routeLength="1493.50" waitingTime="9.00" waitingCount="1" stopTime="0.00" timeLoss="23.13" rerouteNo="0" devices="tripinfo_f_0_2.1" vType="DEFAULT_VEHTYPE" speedFactor="1.03" vaporized=""/>
    <tripinfo id="f_0_9.1" depart="6.00" departLane="G9G8_0" departPos="5.10" departSpeed="0.00" departDelay="0.00" arrival="132.00" arrivalLane="G7G6_0" arrivalPos="492.80" arrivalSpeed="13.46" duration="126.00" routeLength="1494.90" waitingTime="7.00" waitingCount="1" stopTime="0.00" timeLoss="19.31" rerouteNo="0" devices="tripinfo_f_0_9.1" vType="DEFAULT_VEHTYPE" speedFactor="1.01" vaporized=""/>
    <tripinfo id="f_0_14.2" depart="13.00" departLane="C2C3_0" departPos="5.10" departSpeed="0.00" departDelay="1.00" arrival="132.00" arrivalLane="C4C5_0" arrivalPos="492.80" arrivalSpeed="14.14" duration="119.00" routeLength="1494.90" waitingTime="6.00" waitingCount="1" stopTime="0.00" timeLoss="20.08" rerouteNo="0" devices="tripinfo_f_0_14.2" vType="DEFAULT_VEHTYPE" speedFactor="1.09" vaporized=""/>
    <tripinfo id="f_0_15.0" depart="16.00" departLane="C6C5_0" departPos="5.10" departSpeed="0.00" departDelay="0.00" arrival="133.00" arrivalLane="C4C3_0" arrivalPos="491.30" arrivalSpeed="12.62" duration="117.00" routeLength="1493.50" waitingTime="0.00" waitingCount="0" stopTime="0.00" timeLoss="8.31" rerouteNo="0" devices="tripinfo_f_0_15.0" vType="DEFAULT_VEHTYPE" speedFactor="1.00" vaporized=""/>
    <tripinfo id="f_0_8.0" depart="2.00" departLane="G5G6_0" departPos="5.10" departSpeed="0.00" departDelay="0.00" arrival="134.00" arrivalLane="G7G8_0" arrivalPos="491.30" arrivalSpeed="12.06" duration="132.00" routeLength="1493.50" waitingTime="0.00" waitingCount="0" stopTime="0.00" timeLoss="9.71" rerouteNo="0" devices="tripinfo_f_0_8.0" vType="DEFAULT_VEHTYPE" speedFactor="0.89" vaporized=""/>
    <tripinfo id="f_0_15.1" depart="20.00" departLane="C6C5_0" departPos="5.10" departSpeed="0.00" departDelay="0.00" arrival="134.00" arrivalLane="C4C3_0" arrivalPos="491.30" arrivalSpeed="14.51" duration="114.00" routeLength="1493.50" waitingTime="0.00" waitingCount="0" stopTime="0.00" timeLoss="12.04" rerouteNo="0" devices="tripinfo_f_0_15.1" vType="DEFAULT_VEHTYPE" speedFactor="1.06" vaporized=""/>
    <tripinfo id="f_0_8.1" depart="4.00" departLane="G5G6_0" departPos="5.10" departSpeed="0.00" departDelay="1.00" arrival="135.00" arrivalLane="G7G8_0" arrivalPos="491.30" arrivalSpeed="13.28" duration="131.00" routeLength="1493.50" waitingTime="0.00" waitingCount="0" stopTime="0.00" timeLoss="32.25" rerouteNo="0" devices="tripinfo_f_0_8.1" vType="DEFAULT_VEHTYPE" speedFactor="1.09" vaporized=""/>
    <tripinfo id="f_0_9.2" depart="9.00" departLane="G9G8_0" departPos="5.10" departSpeed="0.00" departDelay="1.00" arrival="136.00" arrivalLane="G7G6_0" arrivalPos="492.80" arrivalSpeed="13.01" duration="127.00" routeLength="1494.90" waitingTime="0.00" waitingCount="0" stopTime="0.00" timeLoss="13.50" rerouteNo="0" devices="tripinfo_f_0_9.2" vType="DEFAULT_VEHTYPE" speedFactor="0.95" vaporized=""/>
    <tripinfo id="f_1_15.0" depart="25.00" departLane="C6C5_0" departPos="5.10" departSpeed="0.00" departDelay="0.00" arrival="136.00" arrivalLane="C4C3_0" arrivalPos="491.30" arrivalSpeed="15.57" duration="111.00" routeLength="1493.50" waitingTime="0.00" waitingCount="0" stopTime="0.00" timeLoss="16.85" rerouteNo="0" devices="tripinfo_f_1_15.0" vType="DEFAULT_VEHTYPE" speedFactor="1.15" vaporized=""/>
    <tripinfo id="f_0_2.2" depart="6.00" departLane="C5C6_0" departPos="5.10" departSpeed="0.00" departDelay="1.00" arrival="137.00" arrivalLane="C7C8_0" arrivalPos="491.30" arrivalSpeed="12.91" duration="131.00" routeLength="1493.50" waitingTime="2.00" waitingCount="1" stopTime="0.00" timeLoss="15.82" rerouteNo="0" devices="tripinfo_f_0_2.2" vType="DEFAULT_VEHTYPE" speedFactor="0.94" vaporized=""/>
    <tripinfo id="f_0_14.3" depart="16.00" departLane="C2C3_0" departPos="5.10" departSpeed="0.00" departDelay="1.00" arrival="137.00" arrivalLane="C4C5_0" arrivalPos="492.80" arrivalSpeed="13.35" duration="121.00" routeLength="1494.90" waitingTime="0.00" waitingCount="0" stopTime="0.00" timeLoss="13.20" rerouteNo="0" devices="tripinfo_f_0_14.3" vType="DEFAULT_VEHTYPE" speedFactor="1.00" vaporized=""/>
    <tripinfo id="f_0_8.2" depart="17.00" departLane="G5G6_0" departPos="5.10" departSpeed="0.00" departDelay="0.00" arrival="137.00" arrivalLane="G7G8_0" arrivalPos="491.30" arrivalSpeed="12.97" duration="120.00" routeLength="1493.50" waitingTime="0.00" waitingCount="0" stopTime="0.00" timeLoss="14.53" rerouteNo="0" devices="tripinfo_f_0_8.2" vType="DEFAULT_VEHTYPE" speedFactor="1.02" vaporized=""/>
    <tripinfo id="f_0_9.3" depart="12.00" departLane="G9G8_0" departPos="5.10" departSpeed="0.00" departDelay="1.00" arrival="138.00" arrivalLane="G7G6_0" arrivalPos="492.80" arrivalSpeed="16.12" duration="126.00" routeLength="1494.90" waitingTime="0.00" waitingCount="0" stopTime="0.00" timeLoss="34.31" rerouteNo="0" devices="tripinfo_f_0_9.3" vType="DEFAULT_VEHTYPE" speedFactor="1.18" vaporized=""/>
    <tripinfo id="f_0_9.4" depart="15.00" departLane="G9G8_0" departPos="5.10" departSpeed="0.00" departDelay="2.00" arrival="140.00" arrivalLane="G7G6_0" arrivalPos="492.80" arrivalSpeed="14.66" duration="125.00" routeLength="1494.90" waitingTime="0.00" waitingCount="0" stopTime="0.00" timeLoss="25.31" rerouteNo="0" devices="tripinfo_f_0_9.4" vType="DEFAULT_VEHTYPE" speedFactor="1.09" vaporized=""/>
    <tripinfo id="f_0_9.5" depart="18.00" departLane="G9G8_0" departPos="5.10" departSpeed="0.00" departDelay="1.00" arrival="142.00" arrivalLane="G7G6_0" arrivalPos="492.80" arrivalSpeed="12.24" duration="124.00" routeLength="1494.90" waitingTime="0.00" waitingCount="0" stopTime="0.00" timeLoss="12.20" rerouteNo="0" devices="tripinfo_f_0_9.5" vType="DEFAULT_VEHTYPE" speedFactor="0.97" vaporized=""/>
    <tripinfo id="f_0_9.6" depart="21.00" departLane="G9G8_0" departPos="5.10" departSpeed="0.00" departDelay="1.00" arrival="143.00" arrivalLane="G7G6_0" arrivalPos="492.80" arrivalSpeed="13.76" duration="122.00" routeLength="1494.90" waitingTime="0.00" waitingCount="0" stopTime="0.00" timeLoss="16.51" rerouteNo="0" devices="tripinfo_f_0_9.6" vType="DEFAULT_VEHTYPE" speedFactor="1.02" vaporized=""/>
    <tripinfo id="f_0_2.3" depart="17.00" departLane="C5C6_0" departPos="5.10" departSpeed="0.00" departDelay="0.00" arrival="146.00" arrivalLane="C7C8_0" arrivalPos="491.30" arrivalSpeed="11.98" duration="129.00" routeLength="1493.50" waitingTime="0.00" waitingCount="0" stopTime="0.00" timeLoss="8.75" rerouteNo="0" devices="tripinfo_f_0_2.3" vType="DEFAULT_VEHTYPE" speedFactor="0.90" vaporized=""/>
    <tripinfo id="f_1_15.1" depart="28.00" departLane="C6C5_0" departPos="5.10" departSpeed="0.00" departDelay="2.00" arrival="159.00" arrivalLane="C4C3_0" arrivalPos="491.30" arrivalSpeed="14.42" duration="131.00" routeLength="1493.50" waitingTime="14.00" waitingCount="1" stopTime="0.00" timeLoss="27.80" rerouteNo="0" devices="tripinfo_f_1_15.1" vType="DEFAULT_VEHTYPE" speedFactor="1.04" vaporized=""/>
    <tripinfo id="f_0_2.4" depart="39.00" departLane="C5C6_0" departPos="5.10" departSpeed="0.00" departDelay="0.00" arrival="161.00" arrivalLane="C7C8_0" arrivalPos="491.30" arrivalSpeed="13.02" duration="122.00" routeLength="1493.50" waitingTime="5.00" waitingCount="1" stopTime="0.00" timeLoss="16.78" rerouteNo="0" devices="tripinfo_f_0_2.4" vType="DEFAULT_VEHTYPE" speedFactor="1.02" vaporized=""/>
    <tripinfo id="f_0_3.1" depart="33.00" departLane="C9C8_0" departPos="5.10" departSpeed="0.00" departDelay="0.00" arrival="162.00" arrivalLane="C7C6_0" arrivalPos="492.80" arrivalSpeed="13.43" duration="129.00" routeLength="1494.90" waitingTime="9.00" waitingCount="1" stopTime="0.00" timeLoss="22.41" rerouteNo="0" devices="tripinfo_f_0_3.1" vType="DEFAULT_VEHTYPE" speedFactor="1.01" vaporized=""/>
    <tripinfo id="f_0_9.7" depart="24.00" departLane="G9G8_0" departPos="5.10" departSpeed="0.00" departDelay="2.00" arrival="163.00" arrivalLane="G7G6_0" arrivalPos="492.80" arrivalSpeed="12.95" duration="139.00" routeLength="1494.90" waitingTime="18.00" waitingCount="1" stopTime="0.00" timeLoss="31.54" rerouteNo="0" devices="tripinfo_f_0_9.7" vType="DEFAULT_VEHTYPE" speedFactor="1.01" vaporized=""/>
    <tripinfo id="f_0_9.8" depart="27.00" departLane="G9G8_0" departPos="5.10" departSpeed="0.00" departDelay="4.00" arrival="164.00" arrivalLane="G7G6_0" arrivalPos="492.80" arrivalSpeed="14.09" duration="137.00" routeLength="1494.90" waitingTime="17.00" waitingCount="1" stopTime="0.00" timeLoss="32.87" rerouteNo="0" devices="tripinfo_f_0_9.8" vType="DEFAULT_VEHTYPE" speedFactor="1.03" vaporized=""/>
    <tripinfo id="f_0_8.3" depart="25.00" departLane="G5G6_0" departPos="5.10" departSpeed="0.00" departDelay="0.00" arrival="166.00" arrivalLane="G7G8_0" arrivalPos="491.30" arrivalSpeed="13.39" duration="141.00" routeLength="1493.50" waitingTime="14.00" waitingCount="1" stopTime="0.00" timeLoss="29.31" rerouteNo="0" devices="tripinfo_f_0_8.3" vType="DEFAULT_VEHTYPE" speedFactor="0.97" vaporized=""/>
    <tripinfo id="f_0_9.9" depart="30.00" departLane="G9G8_0" departPos="5.10" departSpeed="0.00" departDelay="3.00" arrival="166.00" arrivalLane="G7G6_0" arrivalPos="492.80" arrivalSpeed="13.51" duration="136.00" routeLength="1494.90" waitingTime="14.00" waitingCount="1" stopTime="0.00" timeLoss="29.85" rerouteNo="0" devices="tripinfo_f_0_9.9" vType="DEFAULT_VEHTYPE" speedFactor="1.02" vaporized=""/>
    <tripinfo id="f_0_14.4" depart="20.00" departLane="C2C3_0" departPos="5.10" departSpeed="0.00" departDelay="0.00" arrival="168.00" arrivalLane="C4C5_0" arrivalPos="492.80" arrivalSpeed="12.56" duration="148.00" routeLength="1494.90" waitingTime="19.00" waitingCount="1" stopTime="0.00" timeLoss="32.86" rerouteNo="0" devices="tripinfo_f_0_14.4" vType="DEFAULT_VEHTYPE" speedFactor="0.94" vaporized=""/>
    <tripinfo id="f_0_8.4" depart="28.00" departLane="G5G6_0" departPos="5.10" departSpeed="0.00" departDelay="1.00" arrival="168.00" arrivalLane="G7G8_0" arrivalPos="491.30" arrivalSpeed="12.96" duration="140.00" routeLength="1493.50" waitingTime="13.00" waitingCount="1" stopTime="0.00" timeLoss="33.98" rerouteNo="0" devices="tripinfo_f_0_8.4" vType="DEFAULT_VEHTYPE" speedFactor="1.02" vaporized=""/>
    <tripinfo id="f_0_9.10" depart="33.00" departLane="G9G8_0" departPos="5.10" departSpeed="0.00" departDelay="3.00" arrival="168.00" arrivalLane="G7G6_0" arrivalPos="492.80" arrivalSpeed="13.70" duration="135.00" routeLength="1494.90" waitingTime="14.00" waitingCount="1" stopTime="0.00" timeLoss="33.36" rerouteNo="0" devices="tripinfo_f_0_9.10" vType="DEFAULT_VEHTYPE" speedFactor="1.07" vaporized=""/>
    <tripinfo id="f_0_14.5" depart="24.00" departLane="C2C3_0" departPos="5.10" departSpeed="0.00" departDelay="0.00" arrival="169.00" arrivalLane="C4C5_0" arrivalPos="492.80" arrivalSpeed="13.76" duration="145.00" routeLength="1494.90" waitingTime="19.00" waitingCount="1" stopTime="0.00" timeLoss="39.13" rerouteNo="0" devices="tripinfo_f_0_14.5" vType="DEFAULT_VEHTYPE" speedFactor="1.02" vaporized=""/>
    <tripinfo id="f_0_8.5" depart="33.00" departLane="G5G6_0" departPos="5.10" departSpeed="0.00" departDelay="0.00" arrival="169.00" arrivalLane="G7G8_0" arrivalPos="491.30" arrivalSpeed="13.69" duration="136.00" routeLength="1493.50" waitingTime="13.00" waitingCount="1" stopTime="0.00" timeLoss="34.87" rerouteNo="0" devices="tripinfo_f_0_8.5" vType="DEFAULT_VEHTYPE" speedFactor="1.06" vaporized=""/>
    <tripinfo id="f_0_9.11" depart="36.00" departLane="G9G8_0" departPos="5.10" departSpeed="0.00" departDelay="1.00" arrival="170.00" arrivalLane="G7G6_0" arrivalPos="492.80" arrivalSpeed="12.95" duration="134.00" routeLength="1494.90" waitingTime="10.00" waitingCount="1" stopTime="0.00" timeLoss="26.66" rerouteNo="0" devices="tripinfo_f_0_9.11" vType="DEFAULT_VEHTYPE" speedFactor="1.01" vaporized=""/>
    <tripinfo id="f_0_1.0" depart="15.00" departLane="F7E7_0" departPos="5.10" departSpeed="0.00" departDelay="0.00" arrival="171.00" arrivalLane="C7B7_0" arrivalPos="491.30" arrivalSpeed="15.66" duration="156.00" routeLength="1993.50" waitingTime="10.00" waitingCount="2" stopTime="0.00" timeLoss="32.48" rerouteNo="0" devices="tripinfo_f_0_1.0" vType="DEFAULT_VEHTYPE" speedFactor="1.17" vaporized=""/>
    <tripinfo id="f_1_14.0" depart="36.00" departLane="C2C3_0" departPos="5.10" departSpeed="0.00" departDelay="0.00" arrival="171.00" arrivalLane="C4C5_0" arrivalPos="492.80" arrivalSpeed="12.92" duration="135.00" routeLength="1494.90" waitingTime="8.00" waitingCount="1" stopTime="0.00" timeLoss="27.56" rerouteNo="0" devices="tripinfo_f_1_14.0" vType="DEFAULT_VEHTYPE" speedFactor="1.00" vaporized=""/>
    <tripinfo id="f_0_8.6" depart="37.00" departLane="G5G6_0" departPos="5.10" departSpeed="0.00" departDelay="0.00" arrival="171.00" arrivalLane="G7G8_0" arrivalPos="491.30" arrivalSpeed="13.48" duration="134.00" routeLength="1493.50" waitingTime="7.00" waitingCount="1" stopTime="0.00" timeLoss="25.24" rerouteNo="0" devices="tripinfo_f_0_8.6" vType="DEFAULT_VEHTYPE" speedFactor="0.99" vaporized=""/>
    <tripinfo id="f_1_15.2" depart="31.00" departLane="C6C5_0" departPos="5.10" departSpeed="0.00" departDelay="3.00" arrival="172.00" arrivalLane="C4C3_0" arrivalPos="491.30" arrivalSpeed="11.84" duration="141.00" routeLength="1493.50" waitingTime="7.00" waitingCount="1" stopTime="0.00" timeLoss="22.34" rerouteNo="0" devices="tripinfo_f_1_15.2" vType="DEFAULT_VEHTYPE" speedFactor="0.91" vaporized=""/>
    <tripinfo id="f_0_13.0" depart="3.00" departLane="F4E4_0" departPos="5.10" departSpeed="0.00" departDelay="0.00" arrival="174.00" arrivalLane="C4B4_0" arrivalPos="491.30" arrivalSpeed="14.30" duration="171.00" routeLength="1993.50" waitingTime="10.00" waitingCount="2" stopTime="0.00" timeLoss="33.31" rerouteNo="0" devices="tripinfo_f_0_13.0" vType="DEFAULT_VEHTYPE" speedFactor="1.05" vaporized=""/>
    <tripinfo id="f_0_7.0" depart="6.00" departLane="J7I7_0" departPos="5.10" departSpeed="0.00" departDelay="0.00" arrival="175.00" arrivalLane="G7F7_0" arrivalPos="492.80" arrivalSpeed="13.37" duration="169.00" routeLength="1994.90" waitingTime="9.00" waitingCount="2" stopTime="0.00" timeLoss="27.40" rerouteNo="0" devices="tripinfo_f_0_7.0" vType="DEFAULT_VEHTYPE" speedFactor="1.02" vaporized=""/>
    <tripinfo id="f_1_15.3" depart="34.00" departLane="C6C5_0" departPos="5.10" departSpeed="0.00" departDelay="2.00" arrival="175.00" arrivalLane="C4C3_0" arrivalPos="491.30" arrivalSpeed="11.61" duration="141.00" routeLength="1493.50" waitingTime="6.00" waitingCount="1" stopTime="0.00" timeLoss="20.52" rerouteNo="0" devices="tripinfo_f_1_15.3" vType="DEFAULT_VEHTYPE" speedFactor="0.89" vaporized=""/>
    <tripinfo id="f_0_10.2" depart="13.00" departLane="H5H6_0" departPos="5.10" departSpeed="0.00" departDelay="0.00" arrival="176.00" arrivalLane="H7H8_0" arrivalPos="491.30" arrivalSpeed="13.14" duration="163.00" routeLength="1493.50" waitingTime="42.00" waitingCount="1" stopTime="0.00" timeLoss="54.37" rerouteNo="0" devices="tripinfo_f_0_10.2" vType="DEFAULT_VEHTYPE" speedFactor="1.00" vaporized=""/>
    <tripinfo id="f_0_5.2" depart="11.00" departLane="D9D8_0" departPos="5.10" departSpeed="0.00" departDelay="0.00" arrival="177.00" arrivalLane="D7D6_0" arrivalPos="492.80" arrivalSpeed="13.40" duration="166.00" routeLength="1494.90" waitingTime="40.00" waitingCount="1" stopTime="0.00" timeLoss="54.62" rerouteNo="0" devices="tripinfo_f_0_5.2" vType="DEFAULT_VEHTYPE" speedFactor="0.97" vaporized=""/>
    <tripinfo id="f_0_10.3" depart="16.00" departLane="H5H6_0" departPos="5.10" departSpeed="0.00" departDelay="1.00" arrival="177.00" arrivalLane="H7H8_0" arrivalPos="491.30" arrivalSpeed="14.21" duration="161.00" routeLength="1493.50" waitingTime="40.00" waitingCount="1" stopTime="0.00" timeLoss="62.68" rerouteNo="0" devices="tripinfo_f_0_10.3" vType="DEFAULT_VEHTYPE" speedFactor="1.10" vaporized=""/>
    <tripinfo id="f_0_7.1" depart="18.00" departLane="J7I7_0" departPos="5.10" departSpeed="0.00" departDelay="0.00" arrival="177.00" arrivalLane="G7F7_0" arrivalPos="492.80" arrivalSpeed="12.81" duration="159.00" routeLength="1994.90" waitingTime="1.00" waitingCount="1" stopTime="0.00" timeLoss="17.43" rerouteNo="0" devices="tripinfo_f_0_7.1" vType="DEFAULT_VEHTYPE" speedFactor="1.02" vaporized=""/>
    <tripinfo id="f_0_3.2" depart="36.00" departLane="C9C8_0" departPos="5.10" departSpeed="0.00" departDelay="2.00" arrival="177.00" arrivalLane="C7C6_0" arrivalPos="492.80" arrivalSpeed="11.84" duration="141.00" routeLength="1494.90" waitingTime="1.00" waitingCount="1" stopTime="0.00" timeLoss="15.96" rerouteNo="0" devices="tripinfo_f_0_3.2" vType="DEFAULT_VEHTYPE" speedFactor="0.87" vaporized=""/>
    <tripinfo id="f_0_13.1" depart="6.00" departLane="F4E4_0" departPos="5.10" departSpeed="0.00" departDelay="0.00" arrival="179.00" arrivalLane="C4B4_0" arrivalPos="491.30" arrivalSpeed="13.48" duration="173.00" routeLength="1993.50" waitingTime="4.00" waitingCount="1" stopTime="0.00" timeLoss="24.96" rerouteNo="0" devices="tripinfo_f_0_13.1" vType="DEFAULT_VEHTYPE" speedFactor="0.98" vaporized=""/>
    <tripinfo id="f_0_16.2" depart="8.00" departLane="D2D3_0" departPos="5.10" departSpeed="0.00" departDelay="0.00" arrival="179.00" arrivalLane="D4D5_0" arrivalPos="492.80" arrivalSpeed="12.82" duration="171.00" routeLength="1494.90" waitingTime="41.00" waitingCount="1" stopTime="0.00" timeLoss="54.61" rerouteNo="0" devices="tripinfo_f_0_16.2" vType="DEFAULT_VEHTYPE" speedFactor="0.93" vaporized=""/>
    <tripinfo id="f_0_10.4" depart="19.00" departLane="H5H6_0" departPos="5.10" departSpeed="0.00" departDelay="2.00" arrival="179.00" arrivalLane="H7H8_0" arrivalPos="491.30" arrivalSpeed="14.58" duration="160.00" routeLength="1493.50" waitingTime="38.00" waitingCount="1" stopTime="0.00" timeLoss="60.14" rerouteNo="0" devices="tripinfo_f_0_10.4" vType="DEFAULT_VEHTYPE" speedFactor="1.08" vaporized=""/>
    <tripinfo id="f_0_7.2" depart="21.00" departLane="J7I7_0" departPos="5.10" departSpeed="0.00" departDelay="1.00" arrival="179.00" arrivalLane="G7F7_0" arrivalPos="492.80" arrivalSpeed="13.39" duration="158.00" routeLength="1994.90" waitingTime="1.00" waitingCount="1" stopTime="0.00" timeLoss="19.42" rerouteNo="0" devices="tripinfo_f_0_7.2" vType="DEFAULT_VEHTYPE" speedFactor="1.04" vaporized=""/>
    <tripinfo id="f_0_16.3" depart="11.00" departLane="D2D3_0" departPos="5.10" departSpeed="0.00" departDelay="1.00" arrival="180.00" arrivalLane="D4D5_0" arrivalPos="492.80" arrivalSpeed="12.65" duration="169.00" routeLength="1494.90" waitingTime="40.00" waitingCount="1" stopTime="0.00" timeLoss="60.73" rerouteNo="0" devices="tripinfo_f_0_16.3" vType="DEFAULT_VEHTYPE" speedFactor="0.99" vaporized=""/>
    <tripinfo id="f_0_5.3" depart="14.00" departLane="D9D8_0" departPos="5.10" departSpeed="0.00" departDelay="2.00" arrival="180.00" arrivalLane="D7D6_0" arrivalPos="492.80" arrivalSpeed="13.23" duration="166.00" routeLength="1494.90" waitingTime="38.00" waitingCount="1" stopTime="0.00" timeLoss="52.58" rerouteNo="0" devices="tripinfo_f_0_5.3" vType="DEFAULT_VEHTYPE" speedFactor="0.96" vaporized=""/>
    <tripinfo id="f_0_4.0" depart="3.00" departLane="D5D6_0" departPos="5.10" departSpeed="0.00" departDelay="0.00" arrival="181.00" arrivalLane="D7D8_0" arrivalPos="491.30" arrivalSpeed="11.81" duration="178.00" routeLength="1493.50" waitingTime="39.00" waitingCount="1" stopTime="0.00" timeLoss="52.15" rerouteNo="0" devices="tripinfo_f_0_4.0" vType="DEFAULT_VEHTYPE" speedFactor="0.86" vaporized=""/>
    <tripinfo id="f_0_17.1" depart="7.00" departLane="D6D5_0" departPos="5.10" departSpeed="0.00" departDelay="0.00" arrival="181.00" arrivalLane="D4D3_0" arrivalPos="491.30" arrivalSpeed="11.79" duration="174.00" routeLength="1493.50" waitingTime="36.00" waitingCount="1" stopTime="0.00" timeLoss="50.41" rerouteNo="0" devices="tripinfo_f_0_17.1" vType="DEFAULT_VEHTYPE" speedFactor="0.87" vaporized=""/>
    <tripinfo id="f_0_5.4" depart="17.00" departLane="D9D8_0" departPos="5.10" departSpeed="0.00" departDelay="0.00" arrival="181.00" arrivalLane="D7D6_0" arrivalPos="492.80" arrivalSpeed="13.84" duration="164.00" routeLength="1494.90" waitingTime="36.00" waitingCount="1" stopTime="0.00" timeLoss="69.55" rerouteNo="0" devices="tripinfo_f_0_5.4" vType="DEFAULT_VEHTYPE" speedFactor="1.14" vaporized=""/>
    <tripinfo id="f_0_16.4" depart="14.00" departLane="D2D3_0" departPos="5.10" departSpeed="0.00" departDelay="2.00" arrival="182.00" arrivalLane="D4D5_0" arrivalPos="492.80" arrivalSpeed="14.22" duration="168.00" routeLength="1494.90" waitingTime="40.00" waitingCount="1" stopTime="0.00" timeLoss="63.77" rerouteNo="0" devices="tripinfo_f_0_16.4" vType="DEFAULT_VEHTYPE" speedFactor="1.04" vaporized=""/>
    <tripinfo id="f_0_10.5" depart="22.00" departLane="H5H6_0" departPos="5.10" departSpeed="0.00" departDelay="4.00" arrival="182.00" arrivalLane="H7H8_0" arrivalPos="491.30" arrivalSpeed="12.80" duration="160.00" routeLength="1493.50" waitingTime="30.00" waitingCount="2" stopTime="0.00" timeLoss="50.20" rerouteNo="0" devices="tripinfo_f_0_10.5" vType="DEFAULT_VEHTYPE" speedFactor="0.99" vaporized=""/>
    <tripinfo id="f_0_4.1" depart="6.00" departLane="D5D6_0" departPos="5.10" departSpeed="0.00" departDelay="2.00" arrival="183.00" arrivalLane="D7D8_0" arrivalPos="491.30" arrivalSpeed="11.13" duration="177.00" routeLength="1493.50" waitingTime="37.00" waitingCount="1" stopTime="0.00" timeLoss="54.10" rerouteNo="0" devices="tripinfo_f_0_4.1" vType="DEFAULT_VEHTYPE" speedFactor="0.88" vaporized=""/>
    <tripinfo id="f_0_10.6" depart="25.00" departLane="H5H6_0" departPos="5.10" departSpeed="0.00" departDelay="5.00" arrival="183.00" arrivalLane="H7H8_0" arrivalPos="491.30" arrivalSpeed="13.42" duration="158.00" routeLength="1493.50" waitingTime="28.00" waitingCount="2" stopTime="0.00" timeLoss="52.72" rerouteNo="0" devices="tripinfo_f_0_10.6" vType="DEFAULT_VEHTYPE" speedFactor="1.02" vaporized=""/>
    <tripinfo id="f_0_5.5" depart="26.00" departLane="D9D8_0" departPos="5.10" departSpeed="0.00" departDelay="0.00" arrival="183.00" arrivalLane="D7D6_0" arrivalPos="492.80" arrivalSpeed="13.00" duration="157.00" routeLength="1494.90" waitingTime="25.00" waitingCount="2" stopTime="0.00" timeLoss="46.37" rerouteNo="0" devices="tripinfo_f_0_5.5" vType="DEFAULT_VEHTYPE" speedFactor="0.98" vaporized=""/>
    <tripinfo id="f_1_17.0" depart="26.00" departLane="D6D5_0" departPos="5.10" departSpeed="0.00" departDelay="0.00" arrival="183.00" arrivalLane="D4D3_0" arrivalPos="491.30" arrivalSpeed="13.46" duration="157.00" routeLength="1493.50" waitingTime="22.00" waitingCount="2" stopTime="0.00" timeLoss="49.46" rerouteNo="0" devices="tripinfo_f_1_17.0" vType="DEFAULT_VEHTYPE" speedFactor="1.01" vaporized=""/>
    <tripinfo id="f_0_11.0" depart="7.00" departLane="H9H8_0" departPos="5.10" departSpeed="0.00" departDelay="0.00" arrival="184.00" arrivalLane="H7H6_0" arrivalPos="492.80" arrivalSpeed="11.37" duration="177.00" routeLength="1494.90" waitingTime="31.00" waitingCount="1" stopTime="0.00" timeLoss="46.12" rerouteNo="0" devices="tripinfo_f_0_11.0" vType="DEFAULT_VEHTYPE" speedFactor="0.83" vaporized=""/>
    <tripinfo id="f_0_13.2" depart="11.00" departLane="F4E4_0" departPos="5.10" departSpeed="0.00" departDelay="0.00" arrival="184.00" arrivalLane="C4B4_0" arrivalPos="491.30" arrivalSpeed="11.75" duration="173.00" routeLength="1993.50" waitingTime="0.00" waitingCount="0" stopTime="0.00" timeLoss="12.87" rerouteNo="0" devices="tripinfo_f_0_13.2" vType="DEFAULT_VEHTYPE" speedFactor="0.90" vaporized=""/>