<?xml version="1.0" encoding="UTF-8"?>

<!-- generated on 2024-05-15 22:03:57 by Eclipse SUMO sumo Version 1.12.0
<configuration xmlns:xsi="http://www.w3.org/2001/XMLSchema-instance" xsi:noNamespaceSchemaLocation="http://sumo.dlr.de/xsd/sumoConfiguration.xsd">

    <input>
        <net-file value="double_500_no_lights.net.xml"/>
        <route-files value="double_3.rou.xml"/>
    </input>

    <output>
        <summary-output value="control_summaries//summary_double_no_lights_500_3.xml"/>
        <tripinfo-output value="control_summaries//tripinfos_double_no_lights_500_3.xml"/>
    </output>

    <processing>
        <time-to-teleport value="-1"/>
    </processing>

    <traci_server>
        <remote-port value="46757"/>
    </traci_server>

</configuration>
-->

<tripinfos xmlns:xsi="http://www.w3.org/2001/XMLSchema-instance" xsi:noNamespaceSchemaLocation="http://sumo.dlr.de/xsd/tripinfo_file.xsd">
    <tripinfo id="f_1_21.0" depart="3.00" departLane="G6G5_0" departPos="5.10" departSpeed="0.00" departDelay="0.00" arrival="104.00" arrivalLane="G4G3_0" arrivalPos="491.30" arrivalSpeed="15.35" duration="101.00" routeLength="1493.50" waitingTime="0.00" waitingCount="0" stopTime="0.00" timeLoss="7.57" rerouteNo="0" devices="tripinfo_f_1_21.0" vType="DEFAULT_VEHTYPE" speedFactor="1.16" vaporized=""/>
    <tripinfo id="f_1_20.0" depart="0.00" departLane="G2G3_0" departPos="5.10" departSpeed="0.00" departDelay="0.00" arrival="108.00" arrivalLane="G4G5_0" arrivalPos="492.80" arrivalSpeed="14.87" duration="108.00" routeLength="1494.90" waitingTime="0.00" waitingCount="0" stopTime="0.00" timeLoss="7.63" rerouteNo="0" devices="tripinfo_f_1_20.0" vType="DEFAULT_VEHTYPE" speedFactor="1.08" vaporized=""/>
    <tripinfo id="f_1_14.0" depart="0.00" departLane="C2C3_0" departPos="5.10" departSpeed="0.00" departDelay="0.00" arrival="114.00" arrivalLane="C4C5_0" arrivalPos="492.80" arrivalSpeed="14.02" duration="114.00" routeLength="1494.90" waitingTime="0.00" waitingCount="0" stopTime="0.00" timeLoss="7.33" rerouteNo="0" devices="tripinfo_f_1_14.0" vType="DEFAULT_VEHTYPE" speedFactor="1.01" vaporized=""/>
    <tripinfo id="f_1_14.1" depart="3.00" departLane="C2C3_0" departPos="5.10" departSpeed="0.00" departDelay="2.00" arrival="116.00" arrivalLane="C4C5_0" arrivalPos="492.80" arrivalSpeed="13.67" duration="113.00" routeLength="1494.90" waitingTime="0.00" waitingCount="0" stopTime="0.00" timeLoss="9.74" rerouteNo="0" devices="tripinfo_f_1_14.1" vType="DEFAULT_VEHTYPE" speedFactor="1.05" vaporized=""/>
    <tripinfo id="f_1_15.0" depart="10.00" departLane="C6C5_0" departPos="5.10" departSpeed="0.00" departDelay="0.00" arrival="117.00" arrivalLane="C4C3_0" arrivalPos="491.30" arrivalSpeed="15.09" duration="107.00" routeLength="1493.50" waitingTime="0.00" waitingCount="0" stopTime="0.00" timeLoss="7.64" rerouteNo="0" devices="tripinfo_f_1_15.0" vType="DEFAULT_VEHTYPE" speedFactor="1.09" vaporized=""/>
    <tripinfo id="f_0_11.0" depart="3.00" departLane="H9H8_0" departPos="5.10" departSpeed="0.00" departDelay="0.00" arrival="121.00" arrivalLane="H7H6_0" arrivalPos="492.80" arrivalSpeed="13.36" duration="118.00" routeLength="1494.90" waitingTime="0.00" waitingCount="0" stopTime="0.00" timeLoss="8.57" rerouteNo="0" devices="tripinfo_f_0_11.0" vType="DEFAULT_VEHTYPE" speedFactor="0.99" vaporized=""/>
    <tripinfo id="f_1_23.0" depart="10.00" departLane="H6H5_0" departPos="5.10" departSpeed="0.00" departDelay="0.00" arrival="121.00" arrivalLane="H4H3_0" arrivalPos="491.30" arrivalSpeed="14.36" duration="111.00" routeLength="1493.50" waitingTime="0.00" waitingCount="0" stopTime="0.00" timeLoss="7.82" rerouteNo="0" devices="tripinfo_f_1_23.0" vType="DEFAULT_VEHTYPE" speedFactor="1.04" vaporized=""/>
    <tripinfo id="f_0_9.0" depart="0.00" departLane="G9G8_0" departPos="5.10" departSpeed="0.00" departDelay="0.00" arrival="123.00" arrivalLane="G7G6_0" arrivalPos="492.80" arrivalSpeed="12.19" duration="123.00" routeLength="1494.90" waitingTime="0.00" waitingCount="0" stopTime="0.00" timeLoss="8.22" rerouteNo="0" devices="tripinfo_f_0_9.0" vType="DEFAULT_VEHTYPE" speedFactor="0.94" vaporized=""/>
    <tripinfo id="f_0_8.0" depart="9.00" departLane="G5G6_0" departPos="5.10" departSpeed="0.00" departDelay="0.00" arrival="123.00" arrivalLane="G7G8_0" arrivalPos="491.30" arrivalSpeed="14.14" duration="114.00" routeLength="1493.50" waitingTime="0.00" waitingCount="0" stopTime="0.00" timeLoss="7.83" rerouteNo="0" devices="tripinfo_f_0_8.0" vType="DEFAULT_VEHTYPE" speedFactor="1.02" vaporized=""/>
    <tripinfo id="f_0_11.1" depart="10.00" departLane="H9H8_0" departPos="5.10" departSpeed="0.00" departDelay="0.00" arrival="123.00" arrivalLane="H7H6_0" arrivalPos="492.80" arrivalSpeed="14.04" duration="113.00" routeLength="1494.90" waitingTime="0.00" waitingCount="0" stopTime="0.00" timeLoss="8.29" rerouteNo="0" devices="tripinfo_f_0_11.1" vType="DEFAULT_VEHTYPE" speedFactor="1.03" vaporized=""/>
    <tripinfo id="f_0_9.1" depart="12.00" departLane="G9G8_0" departPos="5.10" departSpeed="0.00" departDelay="0.00" arrival="125.00" arrivalLane="G7G6_0" arrivalPos="492.80" arrivalSpeed="15.39" duration="113.00" routeLength="1494.90" waitingTime="0.00" waitingCount="0" stopTime="0.00" timeLoss="20.35" rerouteNo="0" devices="tripinfo_f_0_9.1" vType="DEFAULT_VEHTYPE" speedFactor="1.17" vaporized=""/>
    <tripinfo id="f_1_14.2" depart="11.00" departLane="C2C3_0" departPos="5.10" departSpeed="0.00" departDelay="0.00" arrival="127.00" arrivalLane="C4C5_0" arrivalPos="492.80" arrivalSpeed="13.74" duration="116.00" routeLength="1494.90" waitingTime="0.00" waitingCount="0" stopTime="0.00" timeLoss="7.60" rerouteNo="0" devices="tripinfo_f_1_14.2" vType="DEFAULT_VEHTYPE" speedFactor="1.00" vaporized=""/>
    <tripinfo id="f_1_20.1" depart="3.00" departLane="G2G3_0" departPos="5.10" departSpeed="0.00" departDelay="0.00" arrival="128.00" arrivalLane="G4G5_0" arrivalPos="492.80" arrivalSpeed="12.72" duration="125.00" routeLength="1494.90" waitingTime="0.00" waitingCount="0" stopTime="0.00" timeLoss="9.83" rerouteNo="0" devices="tripinfo_f_1_20.1" vType="DEFAULT_VEHTYPE" speedFactor="0.94" vaporized=""/>
    <tripinfo id="f_0_11.2" depart="18.00" departLane="H9H8_0" departPos="5.10" departSpeed="0.00" departDelay="0.00" arrival="128.00" arrivalLane="H7H6_0" arrivalPos="492.80" arrivalSpeed="14.37" duration="110.00" routeLength="1494.90" waitingTime="0.00" waitingCount="0" stopTime="0.00" timeLoss="7.48" rerouteNo="0" devices="tripinfo_f_0_11.2" vType="DEFAULT_VEHTYPE" speedFactor="1.06" vaporized=""/>
    <tripinfo id="f_1_16.0" depart="3.00" departLane="D2D3_0" departPos="5.10" departSpeed="0.00" departDelay="0.00" arrival="129.00" arrivalLane="D4D5_0" arrivalPos="492.80" arrivalSpeed="11.60" duration="126.00" routeLength="1494.90" waitingTime="0.00" waitingCount="0" stopTime="0.00" timeLoss="9.06" rerouteNo="0" devices="tripinfo_f_1_16.0" vType="DEFAULT_VEHTYPE" speedFactor="0.93" vaporized=""/>
    <tripinfo id="f_1_14.3" depart="14.00" departLane="C2C3_0" departPos="5.10" departSpeed="0.00" departDelay="2.00" arrival="129.00" arrivalLane="C4C5_0" arrivalPos="492.80" arrivalSpeed="13.36" duration="115.00" routeLength="1494.90" waitingTime="0.00" waitingCount="0" stopTime="0.00" timeLoss="8.50" rerouteNo="0" devices="tripinfo_f_1_14.3" vType="DEFAULT_VEHTYPE" speedFactor="1.02" vaporized=""/>
    <tripinfo id="f_1_16.1" depart="6.00" departLane="D2D3_0" departPos="5.10" departSpeed="0.00" departDelay="2.00" arrival="130.00" arrivalLane="D4D5_0" arrivalPos="492.80" arrivalSpeed="13.50" duration="124.00" routeLength="1494.90" waitingTime="0.00" waitingCount="0" stopTime="0.00" timeLoss="17.28" rerouteNo="0" devices="tripinfo_f_1_16.1" vType="DEFAULT_VEHTYPE" speedFactor="1.01" vaporized=""/>
    <tripinfo id="f_1_20.2" depart="7.00" departLane="G2G3_0" departPos="5.10" departSpeed="0.00" departDelay="0.00" arrival="130.00" arrivalLane="G4G5_0" arrivalPos="492.80" arrivalSpeed="15.48" duration="123.00" routeLength="1494.90" waitingTime="0.00" waitingCount="0" stopTime="0.00" timeLoss="31.05" rerouteNo="0" devices="tripinfo_f_1_20.2" vType="DEFAULT_VEHTYPE" speedFactor="1.18" vaporized=""/>
    <tripinfo id="f_1_15.1" depart="13.00" departLane="C6C5_0" departPos="5.10" departSpeed="0.00" departDelay="0.00" arrival="130.00" arrivalLane="C4C3_0" arrivalPos="491.30" arrivalSpeed="12.71" duration="117.00" routeLength="1493.50" waitingTime="0.00" waitingCount="0" stopTime="0.00" timeLoss="9.09" rerouteNo="0" devices="tripinfo_f_1_15.1" vType="DEFAULT_VEHTYPE" speedFactor="1.00" vaporized=""/>
    <tripinfo id="f_1_17.0" depart="1.00" departLane="D6D5_0" departPos="5.10" departSpeed="0.00" departDelay="0.00" arrival="131.00" arrivalLane="D4D3_0" arrivalPos="491.30" arrivalSpeed="11.46" duration="130.00" routeLength="1493.50" waitingTime="0.00" waitingCount="0" stopTime="0.00" timeLoss="8.44" rerouteNo="0" devices="tripinfo_f_1_17.0" vType="DEFAULT_VEHTYPE" speedFactor="0.89" vaporized=""/>
    <tripinfo id="f_1_20.3" depart="10.00" departLane="G2G3_0" departPos="5.10" departSpeed="0.00" departDelay="1.00" arrival="131.00" arrivalLane="G4G5_0" arrivalPos="492.80" arrivalSpeed="15.45" duration="121.00" routeLength="1494.90" waitingTime="0.00" waitingCount="0" stopTime="0.00" timeLoss="29.69" rerouteNo="0" devices="tripinfo_f_1_20.3" vType="DEFAULT_VEHTYPE" speedFactor="1.18" vaporized=""/>
    <tripinfo id="f_1_16.2" depart="9.00" departLane="D2D3_0" departPos="5.10" departSpeed="0.00" departDelay="1.00" arrival="132.00" arrivalLane="D4D5_0" arrivalPos="492.80" arrivalSpeed="12.92" duration="123.00" routeLength="1494.90" waitingTime="0.00" waitingCount="0" stopTime="0.00" timeLoss="15.45" rerouteNo="0" devices="tripinfo_f_1_16.2" vType="DEFAULT_VEHTYPE" speedFactor="1.01" vaporized=""/>
    <tripinfo id="f_1_17.1" depart="7.00" departLane="D6D5_0" departPos="5.10" departSpeed="0.00" departDelay="0.00" arrival="133.00" arrivalLane="D4D3_0" arrivalPos="491.30" arrivalSpeed="12.09" duration="126.00" routeLength="1493.50" waitingTime="0.00" waitingCount="0" stopTime="0.00" timeLoss="10.07" rerouteNo="0" devices="tripinfo_f_1_17.1" vType="DEFAULT_VEHTYPE" speedFactor="0.93" vaporized=""/>
    <tripinfo id="f_1_20.4" depart="13.00" departLane="G2G3_0" departPos="5.10" departSpeed="0.00" departDelay="3.00" arrival="133.00" arrivalLane="G4G5_0" arrivalPos="492.80" arrivalSpeed="14.13" duration="120.00" routeLength="1494.90" waitingTime="0.00" waitingCount="0" stopTime="0.00" timeLoss="16.06" rerouteNo="0" devices="tripinfo_f_1_20.4" vType="DEFAULT_VEHTYPE" speedFactor="1.04" vaporized=""/>
    <tripinfo id="f_1_16.3" depart="24.00" departLane="D2D3_0" departPos="5.10" departSpeed="0.00" departDelay="0.00" arrival="134.00" arrivalLane="D4D5_0" arrivalPos="492.80" arrivalSpeed="14.76" duration="110.00" routeLength="1494.90" waitingTime="0.00" waitingCount="0" stopTime="0.00" timeLoss="11.09" rerouteNo="0" devices="tripinfo_f_1_16.3" vType="DEFAULT_VEHTYPE" speedFactor="1.10" vaporized=""/>
    <tripinfo id="f_1_17.2" depart="10.00" departLane="D6D5_0" departPos="5.10" departSpeed="0.00" departDelay="1.00" arrival="135.00" arrivalLane="D4D3_0" arrivalPos="491.30" arrivalSpeed="12.52" duration="125.00" routeLength="1493.50" waitingTime="0.00" waitingCount="0" stopTime="0.00" timeLoss="13.72" rerouteNo="0" devices="tripinfo_f_1_17.2" vType="DEFAULT_VEHTYPE" speedFactor="0.97" vaporized=""/>
    <tripinfo id="f_1_20.5" depart="16.00" departLane="G2G3_0" departPos="5.10" departSpeed="0.00" departDelay="1.00" arrival="135.00" arrivalLane="G4G5_0" arrivalPos="492.80" arrivalSpeed="12.99" duration="119.00" routeLength="1494.90" waitingTime="0.00" waitingCount="0" stopTime="0.00" timeLoss="12.68" rerouteNo="0" devices="tripinfo_f_1_20.5" vType="DEFAULT_VEHTYPE" speedFactor="1.02" vaporized=""/>
    <tripinfo id="f_1_15.2" depart="16.00" departLane="C6C5_0" departPos="5.10" departSpeed="0.00" departDelay="1.00" arrival="136.00" arrivalLane="C4C3_0" arrivalPos="491.30" arrivalSpeed="12.33" duration="120.00" routeLength="1493.50" waitingTime="0.00" waitingCount="0" stopTime="0.00" timeLoss="8.86" rerouteNo="0" devices="tripinfo_f_1_15.2" vType="DEFAULT_VEHTYPE" speedFactor="0.97" vaporized=""/>
    <tripinfo id="f_0_9.2" depart="17.00" departLane="G9G8_0" departPos="5.10" departSpeed="0.00" departDelay="0.00" arrival="136.00" arrivalLane="G7G6_0" arrivalPos="492.80" arrivalSpeed="13.16" duration="119.00" routeLength="1494.90" waitingTime="0.00" waitingCount="0" stopTime="0.00" timeLoss="8.01" rerouteNo="0" devices="tripinfo_f_0_9.2" vType="DEFAULT_VEHTYPE" speedFactor="0.97" vaporized=""/>
    <tripinfo id="f_1_14.4" depart="18.00" departLane="C2C3_0" departPos="5.10" departSpeed="0.00" departDelay="0.00" arrival="136.00" arrivalLane="C4C5_0" arrivalPos="492.80" arrivalSpeed="13.64" duration="118.00" routeLength="1494.90" waitingTime="0.00" waitingCount="0" stopTime="0.00" timeLoss="8.04" rerouteNo="0" devices="tripinfo_f_1_14.4" vType="DEFAULT_VEHTYPE" speedFactor="0.98" vaporized=""/>
    <tripinfo id="f_1_17.3" depart="18.00" departLane="D6D5_0" departPos="5.10" departSpeed="0.00" departDelay="0.00" arrival="136.00" arrivalLane="D4D3_0" arrivalPos="491.30" arrivalSpeed="13.50" duration="118.00" routeLength="1493.50" waitingTime="0.00" waitingCount="0" stopTime="0.00" timeLoss="13.75" rerouteNo="0" devices="tripinfo_f_1_17.3" vType="DEFAULT_VEHTYPE" speedFactor="1.03" vaporized=""/>
    <tripinfo id="f_0_3.0" depart="22.00" departLane="C9C8_0" departPos="5.10" departSpeed="0.00" departDelay="0.00" arrival="136.00" arrivalLane="C7C6_0" arrivalPos="492.80" arrivalSpeed="12.84" duration="114.00" routeLength="1494.90" waitingTime="0.00" waitingCount="0" stopTime="0.00" timeLoss="8.01" rerouteNo="0" devices="tripinfo_f_0_3.0" vType="DEFAULT_VEHTYPE" speedFactor="1.02" vaporized=""/>
    <tripinfo id="f_1_20.6" depart="19.00" departLane="G2G3_0" departPos="5.10" departSpeed="0.00" departDelay="3.00" arrival="137.00" arrivalLane="G4G5_0" arrivalPos="492.80" arrivalSpeed="13.71" duration="118.00" routeLength="1494.90" waitingTime="0.00" waitingCount="0" stopTime="0.00" timeLoss="13.78" rerouteNo="0" devices="tripinfo_f_1_20.6" vType="DEFAULT_VEHTYPE" speedFactor="1.04" vaporized=""/>
    <tripinfo id="f_1_14.5" depart="21.00" departLane="C2C3_0" departPos="5.10" departSpeed="0.00" departDelay="2.00" arrival="138.00" arrivalLane="C4C5_0" arrivalPos="492.80" arrivalSpeed="13.21" duration="117.00" routeLength="1494.90" waitingTime="0.00" waitingCount="0" stopTime="0.00" timeLoss="12.12" rerouteNo="0" devices="tripinfo_f_1_14.5" vType="DEFAULT_VEHTYPE" speedFactor="1.03" vaporized=""/>
    <tripinfo id="f_1_17.4" depart="24.00" departLane="D6D5_0" departPos="5.10" departSpeed="0.00" departDelay="0.00" arrival="138.00" arrivalLane="D4D3_0" arrivalPos="491.30" arrivalSpeed="13.70" duration="114.00" routeLength="1493.50" waitingTime="0.00" waitingCount="0" stopTime="0.00" timeLoss="12.58" rerouteNo="0" devices="tripinfo_f_1_17.4" vType="DEFAULT_VEHTYPE" speedFactor="1.07" vaporized=""/>
    <tripinfo id="f_1_21.1" depart="6.00" departLane="G6G5_0" departPos="5.10" departSpeed="0.00" departDelay="1.00" arrival="139.00" arrivalLane="G4G3_0" arrivalPos="491.30" arrivalSpeed="11.57" duration="133.00" routeLength="1493.50" waitingTime="0.00" waitingCount="0" stopTime="0.00" timeLoss="9.67" rerouteNo="0" devices="tripinfo_f_1_21.1" vType="DEFAULT_VEHTYPE" speedFactor="0.87" vaporized=""/>
    <tripinfo id="f_1_22.0" depart="15.00" departLane="H2H3_0" departPos="5.10" departSpeed="0.00" departDelay="0.00" arrival="139.00" arrivalLane="H4H5_0" arrivalPos="492.80" arrivalSpeed="12.54" duration="124.00" routeLength="1494.90" waitingTime="0.00" waitingCount="0" stopTime="0.00" timeLoss="8.27" rerouteNo="0" devices="tripinfo_f_1_22.0" vType="DEFAULT_VEHTYPE" speedFactor="0.94" vaporized=""/>
    <tripinfo id="f_1_20.7" depart="22.00" departLane="G2G3_0" departPos="5.10" departSpeed="0.00" departDelay="3.00" arrival="139.00" arrivalLane="G4G5_0" arrivalPos="492.80" arrivalSpeed="13.42" duration="117.00" routeLength="1494.90" waitingTime="0.00" waitingCount="0" stopTime="0.00" timeLoss="10.25" rerouteNo="0" devices="tripinfo_f_1_20.7" vType="DEFAULT_VEHTYPE" speedFactor="1.02" vaporized=""/>
    <tripinfo id="f_0_9.3" depart="20.00" departLane="G9G8_0" departPos="5.10" departSpeed="0.00" departDelay="0.00" arrival="140.00" arrivalLane="G7G6_0" arrivalPos="492.80" arrivalSpeed="13.07" duration="120.00" routeLength="1494.90" waitingTime="0.00" waitingCount="0" stopTime="0.00" timeLoss="8.90" rerouteNo="0" devices="tripinfo_f_0_9.3" vType="DEFAULT_VEHTYPE" speedFactor="0.98" vaporized=""/>
    <tripinfo id="f_1_22.1" depart="23.00" departLane="H2H3_0" departPos="5.10" departSpeed="0.00" departDelay="0.00" arrival="140.00" arrivalLane="H4H5_0" arrivalPos="492.80" arrivalSpeed="14.10" duration="117.00" routeLength="1494.90" waitingTime="0.00" waitingCount="0" stopTime="0.00" timeLoss="18.02" rerouteNo="0" devices="tripinfo_f_1_22.1" vType="DEFAULT_VEHTYPE" speedFactor="1.09" vaporized=""/>
    <tripinfo id="f_1_21.2" depart="9.00" departLane="G6G5_0" departPos="5.10" departSpeed="0.00" departDelay="3.00" arrival="141.00" arrivalLane="G4G3_0" arrivalPos="491.30" arrivalSpeed="12.99" duration="132.00" routeLength="1493.50" waitingTime="0.00" waitingCount="0" stopTime="0.00" timeLoss="18.22" rerouteNo="0" devices="tripinfo_f_1_21.2" vType="DEFAULT_VEHTYPE" speedFactor="0.95" vaporized=""/>
    <tripinfo id="f_1_21.3" depart="15.00" departLane="G6G5_0" departPos="5.10" departSpeed="0.00" departDelay="0.00" arrival="143.00" arrivalLane="G4G3_0" arrivalPos="491.30" arrivalSpeed="12.45" duration="128.00" routeLength="1493.50" waitingTime="0.00" waitingCount="0" stopTime="0.00" timeLoss="18.41" rerouteNo="0" devices="tripinfo_f_1_21.3" vType="DEFAULT_VEHTYPE" speedFactor="0.99" vaporized=""/>
    <tripinfo id="f_0_7.0" depart="3.00" departLane="J7I7_0" departPos="5.10" departSpeed="0.00" departDelay="0.00" arrival="145.00" arrivalLane="G7F7_0" arrivalPos="492.80" arrivalSpeed="14.42" duration="142.00" routeLength="1994.90" waitingTime="0.00" waitingCount="0" stopTime="0.00" timeLoss="13.84" rerouteNo="0" devices="tripinfo_f_0_7.0" vType="DEFAULT_VEHTYPE" speedFactor="1.12" vaporized=""/>
    <tripinfo id="f_1_21.4" depart="18.00" departLane="G6G5_0" departPos="5.10" departSpeed="0.00" departDelay="2.00" arrival="145.00" arrivalLane="G4G3_0" arrivalPos="491.30" arrivalSpeed="14.03" duration="127.00" routeLength="1493.50" waitingTime="0.00" waitingCount="0" stopTime="0.00" timeLoss="20.82" rerouteNo="0" devices="tripinfo_f_1_21.4" vType="DEFAULT_VEHTYPE" speedFactor="1.02" vaporized=""/>
    <tripinfo id="f_0_8.1" depart="12.00" departLane="G5G6_0" departPos="5.10" departSpeed="0.00" departDelay="0.00" arrival="148.00" arrivalLane="G7G8_0" arrivalPos="491.30" arrivalSpeed="11.15" duration="136.00" routeLength="1493.50" waitingTime="0.00" waitingCount="0" stopTime="0.00" timeLoss="9.60" rerouteNo="0" devices="tripinfo_f_0_8.1" vType="DEFAULT_VEHTYPE" speedFactor="0.85" vaporized=""/>
    <tripinfo id="f_0_7.1" depart="7.00" departLane="J7I7_0" departPos="5.10" departSpeed="0.00" departDelay="0.00" arrival="149.00" arrivalLane="G7F7_0" arrivalPos="492.80" arrivalSpeed="15.04" duration="142.00" routeLength="1994.90" waitingTime="0.00" waitingCount="0" stopTime="0.00" timeLoss="14.30" rerouteNo="0" devices="tripinfo_f_0_7.1" vType="DEFAULT_VEHTYPE" speedFactor="1.13" vaporized=""/>
    <tripinfo id="f_0_8.2" depart="22.00" departLane="G5G6_0" departPos="5.10" departSpeed="0.00" departDelay="0.00" arrival="149.00" arrivalLane="G7G8_0" arrivalPos="491.30" arrivalSpeed="13.10" duration="127.00" routeLength="1493.50" waitingTime="0.00" waitingCount="0" stopTime="0.00" timeLoss="20.19" rerouteNo="0" devices="tripinfo_f_0_8.2" vType="DEFAULT_VEHTYPE" speedFactor="1.01" vaporized=""/>
    <tripinfo id="f_0_6.0" depart="0.00" departLane="E7F7_0" departPos="5.10" departSpeed="0.00" departDelay="0.00" arrival="150.00" arrivalLane="H7I7_0" arrivalPos="491.30" arrivalSpeed="14.59" duration="150.00" routeLength="1993.50" waitingTime="0.00" waitingCount="0" stopTime="0.00" timeLoss="13.79" rerouteNo="0" devices="tripinfo_f_0_6.0" vType="DEFAULT_VEHTYPE" speedFactor="1.06" vaporized=""/>
    <tripinfo id="f_0_0.0" depart="1.00" departLane="A7B7_0" departPos="5.10" departSpeed="0.00" departDelay="0.00" arrival="153.00" arrivalLane="D7E7_0" arrivalPos="492.80" arrivalSpeed="14.03" duration="152.00" routeLength="1994.90" waitingTime="0.00" waitingCount="0" stopTime="0.00" timeLoss="11.84" rerouteNo="0" devices="tripinfo_f_0_0.0" vType="DEFAULT_VEHTYPE" speedFactor="1.03" vaporized=""/>
    <tripinfo id="f_1_22.2" depart="34.00" departLane="H2H3_0" departPos="5.10" departSpeed="0.00" departDelay="0.00" arrival="156.00" arrivalLane="H4H5_0" arrivalPos="492.80" arrivalSpeed="15.36" duration="122.00" routeLength="1494.90" waitingTime="11.00" waitingCount="1" stopTime="0.00" timeLoss="24.72" rerouteNo="0" devices="tripinfo_f_1_22.2" vType="DEFAULT_VEHTYPE" speedFactor="1.11" vaporized=""/>
    <tripinfo id="f_0_4.0" depart="41.00" departLane="D5D6_0" departPos="5.10" departSpeed="0.00" departDelay="0.00" arrival="157.00" arrivalLane="D7D8_0" arrivalPos="491.30" arrivalSpeed="14.73" duration="116.00" routeLength="1493.50" waitingTime="3.00" waitingCount="1" stopTime="0.00" timeLoss="16.54" rerouteNo="0" devices="tripinfo_f_0_4.0" vType="DEFAULT_VEHTYPE" speedFactor="1.09" vaporized=""/>
    <tripinfo id="f_0_1.0" depart="4.00" departLane="F7E7_0" departPos="5.10" departSpeed="0.00" departDelay="0.00" arrival="158.00" arrivalLane="C7B7_0" arrivalPos="491.30" arrivalSpeed="12.87" duration="154.00" routeLength="1993.50" waitingTime="0.00" waitingCount="0" stopTime="0.00" timeLoss="12.31" rerouteNo="0" devices="tripinfo_f_0_1.0" vType="DEFAULT_VEHTYPE" speedFactor="1.02" vaporized=""/>
    <tripinfo id="f_1_21.5" depart="25.00" departLane="G6G5_0" departPos="5.10" departSpeed="0.00" departDelay="0.00" arrival="158.00" arrivalLane="G4G3_0" arrivalPos="491.30" arrivalSpeed="13.61" duration="133.00" routeLength="1493.50" waitingTime="18.00" waitingCount="1" stopTime="0.00" timeLoss="31.90" rerouteNo="0" devices="tripinfo_f_1_21.5" vType="DEFAULT_VEHTYPE" speedFactor="1.06" vaporized=""/>
    <tripinfo id="f_0_10.0" depart="29.00" departLane="H5H6_0" departPos="5.10" departSpeed="0.00" departDelay="0.00" arrival="158.00" arrivalLane="H7H8_0" arrivalPos="491.30" arrivalSpeed="13.97" duration="129.00" routeLength="1493.50" waitingTime="15.00" waitingCount="1" stopTime="0.00" timeLoss="28.53" rerouteNo="0" devices="tripinfo_f_0_10.0" vType="DEFAULT_VEHTYPE" speedFactor="1.07" vaporized=""/>
    <tripinfo id="f_1_16.4" depart="37.00" departLane="D2D3_0" departPos="5.10" departSpeed="0.00" departDelay="0.00" arrival="158.00" arrivalLane="D4D5_0" arrivalPos="492.80" arrivalSpeed="14.03" duration="121.00" routeLength="1494.90" waitingTime="6.00" waitingCount="1" stopTime="0.00" timeLoss="19.67" rerouteNo="0" devices="tripinfo_f_1_16.4" vType="DEFAULT_VEHTYPE" speedFactor="1.06" vaporized=""/>
    <tripinfo id="f_0_3.1" depart="25.00" departLane="C9C8_0" departPos="5.10" departSpeed="0.00" departDelay="2.00" arrival="159.00" arrivalLane="C7C6_0" arrivalPos="492.80" arrivalSpeed="14.07" duration="134.00" routeLength="1494.90" waitingTime="19.00" waitingCount="1" stopTime="0.00" timeLoss="31.72" rerouteNo="0" devices="tripinfo_f_0_3.1" vType="DEFAULT_VEHTYPE" speedFactor="1.06" vaporized=""/>
    <tripinfo id="f_1_21.6" depart="28.00" departLane="G6G5_0" departPos="5.10" departSpeed="0.00" departDelay="2.00" arrival="160.00" arrivalLane="G4G3_0" arrivalPos="491.30" arrivalSpeed="14.24" duration="132.00" routeLength="1493.50" waitingTime="16.00" waitingCount="1" stopTime="0.00" timeLoss="33.68" rerouteNo="0" devices="tripinfo_f_1_21.6" vType="DEFAULT_VEHTYPE" speedFactor="1.10" vaporized=""/>
    <tripinfo id="f_1_16.5" depart="40.00" departLane="D2D3_0" departPos="5.10" departSpeed="0.00" departDelay="2.00" arrival="160.00" arrivalLane="D4D5_0" arrivalPos="492.80" arrivalSpeed="16.19" duration="120.00" routeLength="1494.90" waitingTime="6.00" waitingCount="1" stopTime="0.00" timeLoss="28.08" rerouteNo="0" devices="tripinfo_f_1_16.5" vType="DEFAULT_VEHTYPE" speedFactor="1.18" vaporized=""/>
    <tripinfo id="f_1_20.8" depart="25.00" departLane="G2G3_0" departPos="5.10" departSpeed="0.00" departDelay="3.00" arrival="161.00" arrivalLane="G4G5_0" arrivalPos="492.80" arrivalSpeed="13.04" duration="136.00" routeLength="1494.90" waitingTime="17.00" waitingCount="1" stopTime="0.00" timeLoss="30.44" rerouteNo="0" devices="tripinfo_f_1_20.8" vType="DEFAULT_VEHTYPE" speedFactor="1.02" vaporized=""/>
    <tripinfo id="f_1_22.3" depart="43.00" departLane="H2H3_0" departPos="5.10" departSpeed="0.00" departDelay="0.00" arrival="161.00" arrivalLane="H4H5_0" arrivalPos="492.80" arrivalSpeed="14.12" duration="118.00" routeLength="1494.90" waitingTime="2.00" waitingCount="1" stopTime="0.00" timeLoss="16.22" rerouteNo="0" devices="tripinfo_f_1_22.3" vType="DEFAULT_VEHTYPE" speedFactor="1.06" vaporized=""/>
    <tripinfo id="f_1_17.5" depart="27.00" departLane="D6D5_0" departPos="5.10" departSpeed="0.00" departDelay="2.00" arrival="162.00" arrivalLane="D4D3_0" arrivalPos="491.30" arrivalSpeed="13.98" duration="135.00" routeLength="1493.50" waitingTime="15.00" waitingCount="1" stopTime="0.00" timeLoss="28.56" rerouteNo="0" devices="tripinfo_f_1_17.5" vType="DEFAULT_VEHTYPE" speedFactor="1.01" vaporized=""/>
    <tripinfo id="f_0_8.3" depart="29.00" departLane="G5G6_0" departPos="5.10" departSpeed="0.00" departDelay="0.00" arrival="163.00" arrivalLane="G7G8_0" arrivalPos="491.30" arrivalSpeed="13.64" duration="134.00" routeLength="1493.50" waitingTime="13.00" waitingCount="1" stopTime="0.00" timeLoss="25.54" rerouteNo="0" devices="tripinfo_f_0_8.3" vType="DEFAULT_VEHTYPE" speedFactor="0.99" vaporized=""/>
    <tripinfo id="f_1_22.4" depart="46.00" departLane="H2H3_0" departPos="5.10" departSpeed="0.00" departDelay="2.00" arrival="163.00" arrivalLane="H4H5_0" arrivalPos="492.80" arrivalSpeed="14.97" duration="117.00" routeLength="1494.90" waitingTime="1.00" waitingCount="1" stopTime="0.00" timeLoss="16.33" rerouteNo="0" devices="tripinfo_f_1_22.4" vType="DEFAULT_VEHTYPE" speedFactor="1.08" vaporized=""/>
    <tripinfo id="f_1_12.0" depart="2.00" departLane="A4B4_0" departPos="5.10" departSpeed="0.00" departDelay="0.00" arrival="165.00" arrivalLane="D4E4_0" arrivalPos="492.80" arrivalSpeed="14.65" duration="163.00" routeLength="1994.90" waitingTime="8.00" waitingCount="2" stopTime="0.00" timeLoss="30.90" rerouteNo="0" devices="tripinfo_f_1_12.0" vType="DEFAULT_VEHTYPE" speedFactor="1.09" vaporized=""/>
    <tripinfo id="f_1_21.7" depart="31.00" departLane="G6G5_0" departPos="5.10" departSpeed="0.00" departDelay="2.00" arrival="165.00" arrivalLane="G4G3_0" arrivalPos="491.30" arrivalSpeed="13.85" duration="134.00" routeLength="1493.50" waitingTime="13.00" waitingCount="1" stopTime="0.00" timeLoss="28.79" rerouteNo="0" devices="tripinfo_f_1_21.7" vType="DEFAULT_VEHTYPE" speedFactor="1.02" vaporized=""/>
    <tripinfo id="f_0_8.4" depart="35.00" departLane="G5G6_0" departPos="5.10" departSpeed="0.00" departDelay="0.00" arrival="165.00" arrivalLane="G7G8_0" arrivalPos="491.30" arrivalSpeed="15.98" duration="130.00" routeLength="1493.50" waitingTime="12.00" waitingCount="1" stopTime="0.00" timeLoss="37.14" rerouteNo="0" devices="tripinfo_f_0_8.4" vType="DEFAULT_VEHTYPE" speedFactor="1.16" vaporized=""/>
    <tripinfo id="f_1_10.0" depart="63.00" departLane="H5H6_0" departPos="5.10" departSpeed="0.00" departDelay="0.00" arrival="166.00" arrivalLane="H7H8_0" arrivalPos="491.30" arrivalSpeed="14.99" duration="103.00" routeLength="1493.50" waitingTime="0.00" waitingCount="0" stopTime="0.00" timeLoss="7.68" rerouteNo="0" devices="tripinfo_f_1_10.0" vType="DEFAULT_VEHTYPE" speedFactor="1.13" vaporized=""/>
    <tripinfo id="f_0_11.3" depart="29.00" departLane="H9H8_0" departPos="5.10" departSpeed="0.00" departDelay="0.00" arrival="167.00" arrivalLane="H7H6_0" arrivalPos="492.80" arrivalSpeed="12.83" duration="138.00" routeLength="1494.90" waitingTime="11.00" waitingCount="1" stopTime="0.00" timeLoss="23.45" rerouteNo="0" devices="tripinfo_f_0_11.3" vType="DEFAULT_VEHTYPE" speedFactor="0.94" vaporized=""/>
    <tripinfo id="f_1_21.8" depart="35.00" departLane="G6G5_0" departPos="5.10" departSpeed="0.00" departDelay="0.00" arrival="167.00" arrivalLane="G4G3_0" arrivalPos="491.30" arrivalSpeed="15.29" duration="132.00" routeLength="1493.50" waitingTime="13.00" waitingCount="1" stopTime="0.00" timeLoss="37.23" rerouteNo="0" devices="tripinfo_f_1_21.8" vType="DEFAULT_VEHTYPE" speedFactor="1.14" vaporized=""/>
    <tripinfo id="f_0_4.1" depart="45.00" departLane="D5D6_0" departPos="5.10" departSpeed="0.00" departDelay="0.00" arrival="167.00" arrivalLane="D7D8_0" arrivalPos="491.30" arrivalSpeed="12.72" duration="122.00" routeLength="1493.50" waitingTime="0.00" waitingCount="0" stopTime="0.00" timeLoss="10.89" rerouteNo="0" devices="tripinfo_f_0_4.1" vType="DEFAULT_VEHTYPE" speedFactor="0.97" vaporized=""/>
    <tripinfo id="f_0_8.5" depart="47.00" departLane="G5G6_0" departPos="5.10" departSpeed="0.00" departDelay="0.00" arrival="167.00" arrivalLane="G7G8_0" arrivalPos="491.30" arrivalSpeed="13.54" duration="120.00" routeLength="1493.50" waitingTime="0.00" waitingCount="0" stopTime="0.00" timeLoss="18.40" rerouteNo="0" devices="tripinfo_f_0_8.5" vType="DEFAULT_VEHTYPE" speedFactor="1.06" vaporized=""/>