<?xml version="1.0" encoding="UTF-8"?>

<!-- generated on 2024-07-18 15:38:30 by Eclipse SUMO sumo Version 1.17.0
<configuration xmlns:xsi="http://www.w3.org/2001/XMLSchema-instance" xsi:noNamespaceSchemaLocation="http://sumo.dlr.de/xsd/sumoConfiguration.xsd">

    <input>
        <net-file value="triple_static_offset.net.xml"/>
        <route-files value="triple_2.rou.xml"/>
    </input>

    <output>
        <summary-output value="control_summaries//summary_triple_static_offset_2.xml"/>
        <tripinfo-output value="control_summaries//tripinfos_triple_static_offset_2.xml"/>
    </output>

    <processing>
        <time-to-teleport value="-1"/>
    </processing>

    <traci_server>
        <remote-port value="55526"/>
    </traci_server>

</configuration>
-->

<tripinfos xmlns:xsi="http://www.w3.org/2001/XMLSchema-instance" xsi:noNamespaceSchemaLocation="http://sumo.dlr.de/xsd/tripinfo_file.xsd">
    <tripinfo id="f_0_5.0" depart="0.00" departLane="D3D4_0" departPos="5.10" departSpeed="0.00" departDelay="0.00" arrival="124.00" arrivalLane="D5D6_0" arrivalPos="491.30" arrivalSpeed="11.84" duration="124.00" routeLength="1493.50" waitingTime="0.00" waitingCount="0" stopTime="0.00" timeLoss="8.59" rerouteNo="0" devices="tripinfo_f_0_5.0" vType="DEFAULT_VEHTYPE" speedFactor="0.94" vaporized=""/>
    <tripinfo id="f_0_7.0" depart="2.00" departLane="E3E4_0" departPos="5.10" departSpeed="0.00" departDelay="0.00" arrival="127.00" arrivalLane="E5E6_0" arrivalPos="491.30" arrivalSpeed="14.91" duration="125.00" routeLength="1493.50" waitingTime="14.00" waitingCount="1" stopTime="0.00" timeLoss="28.50" rerouteNo="0" devices="tripinfo_f_0_7.0" vType="DEFAULT_VEHTYPE" speedFactor="1.12" vaporized=""/>
    <tripinfo id="f_0_2.0" depart="0.00" departLane="C7C6_0" departPos="5.10" departSpeed="0.00" departDelay="0.00" arrival="128.00" arrivalLane="C5C4_0" arrivalPos="492.80" arrivalSpeed="13.47" duration="128.00" routeLength="1494.90" waitingTime="13.00" waitingCount="1" stopTime="0.00" timeLoss="26.30" rerouteNo="0" devices="tripinfo_f_0_2.0" vType="DEFAULT_VEHTYPE" speedFactor="1.06" vaporized=""/>
    <tripinfo id="f_0_15.0" depart="0.00" departLane="E0E1_0" departPos="5.10" departSpeed="0.00" departDelay="0.00" arrival="128.00" arrivalLane="E2E3_0" arrivalPos="492.80" arrivalSpeed="14.24" duration="128.00" routeLength="1494.90" waitingTime="13.00" waitingCount="1" stopTime="0.00" timeLoss="27.85" rerouteNo="0" devices="tripinfo_f_0_15.0" vType="DEFAULT_VEHTYPE" speedFactor="1.08" vaporized=""/>
    <tripinfo id="f_0_7.1" depart="11.00" departLane="E3E4_0" departPos="5.10" departSpeed="0.00" departDelay="0.00" arrival="128.00" arrivalLane="E5E6_0" arrivalPos="491.30" arrivalSpeed="15.42" duration="117.00" routeLength="1493.50" waitingTime="8.00" waitingCount="1" stopTime="0.00" timeLoss="22.79" rerouteNo="0" devices="tripinfo_f_0_7.1" vType="DEFAULT_VEHTYPE" speedFactor="1.14" vaporized=""/>
    <tripinfo id="f_0_11.0" depart="1.00" departLane="C0C1_0" departPos="5.10" departSpeed="0.00" departDelay="0.00" arrival="129.00" arrivalLane="C2C3_0" arrivalPos="492.80" arrivalSpeed="14.34" duration="128.00" routeLength="1494.90" waitingTime="10.00" waitingCount="1" stopTime="0.00" timeLoss="25.09" rerouteNo="0" devices="tripinfo_f_0_11.0" vType="DEFAULT_VEHTYPE" speedFactor="1.05" vaporized=""/>
    <tripinfo id="f_0_3.0" depart="2.00" departLane="C3C4_0" departPos="5.10" departSpeed="0.00" departDelay="0.00" arrival="129.00" arrivalLane="C5C6_0" arrivalPos="491.30" arrivalSpeed="13.72" duration="127.00" routeLength="1493.50" waitingTime="9.00" waitingCount="1" stopTime="0.00" timeLoss="22.10" rerouteNo="0" devices="tripinfo_f_0_3.0" vType="DEFAULT_VEHTYPE" speedFactor="1.03" vaporized=""/>
    <tripinfo id="f_0_6.0" depart="2.00" departLane="E7E6_0" departPos="5.10" departSpeed="0.00" departDelay="0.00" arrival="129.00" arrivalLane="E5E4_0" arrivalPos="492.80" arrivalSpeed="14.47" duration="127.00" routeLength="1494.90" waitingTime="11.00" waitingCount="1" stopTime="0.00" timeLoss="23.59" rerouteNo="0" devices="tripinfo_f_0_6.0" vType="DEFAULT_VEHTYPE" speedFactor="1.05" vaporized=""/>
    <tripinfo id="f_0_10.0" depart="0.00" departLane="C4C3_0" departPos="5.10" departSpeed="0.00" departDelay="0.00" arrival="130.00" arrivalLane="C2C1_0" arrivalPos="491.30" arrivalSpeed="13.67" duration="130.00" routeLength="1493.50" waitingTime="11.00" waitingCount="1" stopTime="0.00" timeLoss="23.21" rerouteNo="0" devices="tripinfo_f_0_10.0" vType="DEFAULT_VEHTYPE" speedFactor="1.01" vaporized=""/>
    <tripinfo id="f_0_7.2" depart="19.00" departLane="E3E4_0" departPos="5.10" departSpeed="0.00" departDelay="0.00" arrival="132.00" arrivalLane="E5E6_0" arrivalPos="491.30" arrivalSpeed="13.40" duration="113.00" routeLength="1493.50" waitingTime="0.00" waitingCount="0" stopTime="0.00" timeLoss="11.19" rerouteNo="0" devices="tripinfo_f_0_7.2" vType="DEFAULT_VEHTYPE" speedFactor="1.06" vaporized=""/>
    <tripinfo id="f_0_14.0" depart="1.00" departLane="E4E3_0" departPos="5.10" departSpeed="0.00" departDelay="0.00" arrival="133.00" arrivalLane="E2E1_0" arrivalPos="491.30" arrivalSpeed="11.83" duration="132.00" routeLength="1493.50" waitingTime="4.00" waitingCount="1" stopTime="0.00" timeLoss="16.74" rerouteNo="0" devices="tripinfo_f_0_14.0" vType="DEFAULT_VEHTYPE" speedFactor="0.94" vaporized=""/>
    <tripinfo id="f_0_10.1" depart="2.00" departLane="C4C3_0" departPos="5.10" departSpeed="0.00" departDelay="0.00" arrival="133.00" arrivalLane="C2C1_0" arrivalPos="491.30" arrivalSpeed="13.33" duration="131.00" routeLength="1493.50" waitingTime="9.00" waitingCount="1" stopTime="0.00" timeLoss="21.65" rerouteNo="0" devices="tripinfo_f_0_10.1" vType="DEFAULT_VEHTYPE" speedFactor="0.99" vaporized=""/>
    <tripinfo id="f_0_2.1" depart="17.00" departLane="C7C6_0" departPos="5.10" departSpeed="0.00" departDelay="0.00" arrival="133.00" arrivalLane="C5C4_0" arrivalPos="492.80" arrivalSpeed="12.83" duration="116.00" routeLength="1494.90" waitingTime="0.00" waitingCount="0" stopTime="0.00" timeLoss="8.05" rerouteNo="0" devices="tripinfo_f_0_2.1" vType="DEFAULT_VEHTYPE" speedFactor="1.00" vaporized=""/>
    <tripinfo id="f_0_6.1" depart="21.00" departLane="E7E6_0" departPos="5.10" departSpeed="0.00" departDelay="0.00" arrival="133.00" arrivalLane="E5E4_0" arrivalPos="492.80" arrivalSpeed="13.49" duration="112.00" routeLength="1494.90" waitingTime="0.00" waitingCount="0" stopTime="0.00" timeLoss="7.88" rerouteNo="0" devices="tripinfo_f_0_6.1" vType="DEFAULT_VEHTYPE" speedFactor="1.03" vaporized=""/>
    <tripinfo id="f_0_10.2" depart="6.00" departLane="C4C3_0" departPos="5.10" departSpeed="0.00" departDelay="3.00" arrival="134.00" arrivalLane="C2C1_0" arrivalPos="491.30" arrivalSpeed="14.64" duration="128.00" routeLength="1493.50" waitingTime="6.00" waitingCount="1" stopTime="0.00" timeLoss="34.88" rerouteNo="0" devices="tripinfo_f_0_10.2" vType="DEFAULT_VEHTYPE" speedFactor="1.16" vaporized=""/>
    <tripinfo id="f_0_2.2" depart="23.00" departLane="C7C6_0" departPos="5.10" departSpeed="0.00" departDelay="0.00" arrival="134.00" arrivalLane="C5C4_0" arrivalPos="492.80" arrivalSpeed="15.12" duration="111.00" routeLength="1494.90" waitingTime="0.00" waitingCount="0" stopTime="0.00" timeLoss="19.57" rerouteNo="0" devices="tripinfo_f_0_2.2" vType="DEFAULT_VEHTYPE" speedFactor="1.18" vaporized=""/>
    <tripinfo id="f_0_7.3" depart="23.00" departLane="E3E4_0" departPos="5.10" departSpeed="0.00" departDelay="0.00" arrival="134.00" arrivalLane="E5E6_0" arrivalPos="491.30" arrivalSpeed="13.63" duration="111.00" routeLength="1493.50" waitingTime="0.00" waitingCount="0" stopTime="0.00" timeLoss="10.36" rerouteNo="0" devices="tripinfo_f_0_7.3" vType="DEFAULT_VEHTYPE" speedFactor="1.07" vaporized=""/>
    <tripinfo id="f_0_14.1" depart="4.00" departLane="E4E3_0" departPos="5.10" departSpeed="0.00" departDelay="2.00" arrival="135.00" arrivalLane="E2E1_0" arrivalPos="491.30" arrivalSpeed="11.88" duration="131.00" routeLength="1493.50" waitingTime="3.00" waitingCount="1" stopTime="0.00" timeLoss="16.32" rerouteNo="0" devices="tripinfo_f_0_14.1" vType="DEFAULT_VEHTYPE" speedFactor="0.94" vaporized=""/>
    <tripinfo id="f_0_11.1" depart="4.00" departLane="C0C1_0" departPos="5.10" departSpeed="0.00" departDelay="2.00" arrival="136.00" arrivalLane="C2C3_0" arrivalPos="492.80" arrivalSpeed="11.98" duration="132.00" routeLength="1494.90" waitingTime="2.00" waitingCount="1" stopTime="0.00" timeLoss="15.34" rerouteNo="0" devices="tripinfo_f_0_11.1" vType="DEFAULT_VEHTYPE" speedFactor="0.93" vaporized=""/>
    <tripinfo id="f_0_7.4" depart="26.00" departLane="E3E4_0" departPos="5.10" departSpeed="0.00" departDelay="0.00" arrival="136.00" arrivalLane="E5E6_0" arrivalPos="491.30" arrivalSpeed="13.80" duration="110.00" routeLength="1493.50" waitingTime="0.00" waitingCount="0" stopTime="0.00" timeLoss="8.91" rerouteNo="0" devices="tripinfo_f_0_7.4" vType="DEFAULT_VEHTYPE" speedFactor="1.07" vaporized=""/>
    <tripinfo id="f_0_14.2" depart="7.00" departLane="E4E3_0" departPos="5.10" departSpeed="0.00" departDelay="4.00" arrival="137.00" arrivalLane="E2E1_0" arrivalPos="491.30" arrivalSpeed="13.33" duration="130.00" routeLength="1493.50" waitingTime="2.00" waitingCount="1" stopTime="0.00" timeLoss="22.72" rerouteNo="0" devices="tripinfo_f_0_14.2" vType="DEFAULT_VEHTYPE" speedFactor="1.01" vaporized=""/>
    <tripinfo id="f_0_11.2" depart="7.00" departLane="C0C1_0" departPos="5.10" departSpeed="0.00" departDelay="3.00" arrival="138.00" arrivalLane="C2C3_0" arrivalPos="492.80" arrivalSpeed="12.03" duration="131.00" routeLength="1494.90" waitingTime="1.00" waitingCount="1" stopTime="0.00" timeLoss="16.76" rerouteNo="0" devices="tripinfo_f_0_11.2" vType="DEFAULT_VEHTYPE" speedFactor="0.95" vaporized=""/>
    <tripinfo id="f_0_14.3" depart="10.00" departLane="E4E3_0" departPos="5.10" departSpeed="0.00" departDelay="5.00" arrival="138.00" arrivalLane="E2E1_0" arrivalPos="491.30" arrivalSpeed="13.23" duration="128.00" routeLength="1493.50" waitingTime="2.00" waitingCount="1" stopTime="0.00" timeLoss="17.48" rerouteNo="0" devices="tripinfo_f_0_14.3" vType="DEFAULT_VEHTYPE" speedFactor="0.97" vaporized=""/>
    <tripinfo id="f_0_15.1" depart="3.00" departLane="E0E1_0" departPos="5.10" departSpeed="0.00" departDelay="2.00" arrival="139.00" arrivalLane="E2E3_0" arrivalPos="492.80" arrivalSpeed="11.19" duration="136.00" routeLength="1494.90" waitingTime="0.00" waitingCount="0" stopTime="0.00" timeLoss="9.85" rerouteNo="0" devices="tripinfo_f_0_15.1" vType="DEFAULT_VEHTYPE" speedFactor="0.86" vaporized=""/>
    <tripinfo id="f_0_10.3" depart="9.00" departLane="C4C3_0" departPos="5.10" departSpeed="0.00" departDelay="5.00" arrival="139.00" arrivalLane="C2C1_0" arrivalPos="491.30" arrivalSpeed="12.65" duration="130.00" routeLength="1493.50" waitingTime="0.00" waitingCount="0" stopTime="0.00" timeLoss="12.75" rerouteNo="0" devices="tripinfo_f_0_10.3" vType="DEFAULT_VEHTYPE" speedFactor="0.92" vaporized=""/>
    <tripinfo id="f_0_11.3" depart="10.00" departLane="C0C1_0" departPos="5.10" departSpeed="0.00" departDelay="4.00" arrival="139.00" arrivalLane="C2C3_0" arrivalPos="492.80" arrivalSpeed="14.71" duration="129.00" routeLength="1494.90" waitingTime="0.00" waitingCount="0" stopTime="0.00" timeLoss="37.52" rerouteNo="0" devices="tripinfo_f_0_11.3" vType="DEFAULT_VEHTYPE" speedFactor="1.18" vaporized=""/>
    <tripinfo id="f_0_14.4" depart="13.00" departLane="E4E3_0" departPos="5.10" departSpeed="0.00" departDelay="6.00" arrival="140.00" arrivalLane="E2E1_0" arrivalPos="491.30" arrivalSpeed="13.20" duration="127.00" routeLength="1493.50" waitingTime="0.00" waitingCount="0" stopTime="0.00" timeLoss="23.65" rerouteNo="0" devices="tripinfo_f_0_14.4" vType="DEFAULT_VEHTYPE" speedFactor="1.04" vaporized=""/>
    <tripinfo id="f_0_15.2" depart="6.00" departLane="E0E1_0" departPos="5.10" departSpeed="0.00" departDelay="3.00" arrival="141.00" arrivalLane="E2E3_0" arrivalPos="492.80" arrivalSpeed="12.60" duration="135.00" routeLength="1494.90" waitingTime="0.00" waitingCount="0" stopTime="0.00" timeLoss="23.78" rerouteNo="0" devices="tripinfo_f_0_15.2" vType="DEFAULT_VEHTYPE" speedFactor="0.97" vaporized=""/>
    <tripinfo id="f_0_10.4" depart="12.00" departLane="C4C3_0" departPos="5.10" departSpeed="0.00" departDelay="7.00" arrival="141.00" arrivalLane="C2C1_0" arrivalPos="491.30" arrivalSpeed="15.21" duration="129.00" routeLength="1493.50" waitingTime="0.00" waitingCount="0" stopTime="0.00" timeLoss="36.77" rerouteNo="0" devices="tripinfo_f_0_10.4" vType="DEFAULT_VEHTYPE" speedFactor="1.17" vaporized=""/>
    <tripinfo id="f_0_11.4" depart="13.00" departLane="C0C1_0" departPos="5.10" departSpeed="0.00" departDelay="3.00" arrival="141.00" arrivalLane="C2C3_0" arrivalPos="492.80" arrivalSpeed="15.53" duration="128.00" routeLength="1494.90" waitingTime="0.00" waitingCount="0" stopTime="0.00" timeLoss="35.29" rerouteNo="0" devices="tripinfo_f_0_11.4" vType="DEFAULT_VEHTYPE" speedFactor="1.17" vaporized=""/>
    <tripinfo id="f_0_6.2" depart="24.00" departLane="E7E6_0" departPos="5.10" departSpeed="0.00" departDelay="1.00" arrival="141.00" arrivalLane="E5E4_0" arrivalPos="492.80" arrivalSpeed="12.70" duration="117.00" routeLength="1494.90" waitingTime="0.00" waitingCount="0" stopTime="0.00" timeLoss="8.36" rerouteNo="0" devices="tripinfo_f_0_6.2" vType="DEFAULT_VEHTYPE" speedFactor="0.99" vaporized=""/>
    <tripinfo id="f_0_15.3" depart="9.00" departLane="E0E1_0" departPos="5.10" departSpeed="0.00" departDelay="5.00" arrival="142.00" arrivalLane="E2E3_0" arrivalPos="492.80" arrivalSpeed="14.42" duration="133.00" routeLength="1494.90" waitingTime="0.00" waitingCount="0" stopTime="0.00" timeLoss="41.48" rerouteNo="0" devices="tripinfo_f_0_15.3" vType="DEFAULT_VEHTYPE" speedFactor="1.18" vaporized=""/>
    <tripinfo id="f_0_14.5" depart="16.00" departLane="E4E3_0" departPos="5.10" departSpeed="0.00" departDelay="6.00" arrival="142.00" arrivalLane="E2E1_0" arrivalPos="491.30" arrivalSpeed="15.11" duration="126.00" routeLength="1493.50" waitingTime="0.00" waitingCount="0" stopTime="0.00" timeLoss="27.19" rerouteNo="0" devices="tripinfo_f_0_14.5" vType="DEFAULT_VEHTYPE" speedFactor="1.10" vaporized=""/>
    <tripinfo id="f_0_10.5" depart="15.00" departLane="C4C3_0" departPos="5.10" departSpeed="0.00" departDelay="8.00" arrival="143.00" arrivalLane="C2C1_0" arrivalPos="491.30" arrivalSpeed="13.32" duration="128.00" routeLength="1493.50" waitingTime="0.00" waitingCount="0" stopTime="0.00" timeLoss="23.75" rerouteNo="0" devices="tripinfo_f_0_10.5" vType="DEFAULT_VEHTYPE" speedFactor="1.04" vaporized=""/>
    <tripinfo id="f_0_11.5" depart="16.00" departLane="C0C1_0" departPos="5.10" departSpeed="0.00" departDelay="5.00" arrival="143.00" arrivalLane="C2C3_0" arrivalPos="492.80" arrivalSpeed="14.09" duration="127.00" routeLength="1494.90" waitingTime="0.00" waitingCount="0" stopTime="0.00" timeLoss="26.70" rerouteNo="0" devices="tripinfo_f_0_11.5" vType="DEFAULT_VEHTYPE" speedFactor="1.08" vaporized=""/>
    <tripinfo id="f_0_15.4" depart="12.00" departLane="E0E1_0" departPos="5.10" departSpeed="0.00" departDelay="4.00" arrival="144.00" arrivalLane="E2E3_0" arrivalPos="492.80" arrivalSpeed="13.50" duration="132.00" routeLength="1494.90" waitingTime="0.00" waitingCount="0" stopTime="0.00" timeLoss="23.68" rerouteNo="0" devices="tripinfo_f_0_15.4" vType="DEFAULT_VEHTYPE" speedFactor="1.00" vaporized=""/>
    <tripinfo id="f_0_14.6" depart="19.00" departLane="E4E3_0" departPos="5.10" departSpeed="0.00" departDelay="8.00" arrival="144.00" arrivalLane="E2E1_0" arrivalPos="491.30" arrivalSpeed="14.05" duration="125.00" routeLength="1493.50" waitingTime="0.00" waitingCount="0" stopTime="0.00" timeLoss="18.26" rerouteNo="0" devices="tripinfo_f_0_14.6" vType="DEFAULT_VEHTYPE" speedFactor="1.02" vaporized=""/>
    <tripinfo id="f_0_14.7" depart="22.00" departLane="E4E3_0" departPos="5.10" departSpeed="0.00" departDelay="3.00" arrival="145.00" arrivalLane="E2E1_0" arrivalPos="491.30" arrivalSpeed="14.52" duration="123.00" routeLength="1493.50" waitingTime="0.00" waitingCount="0" stopTime="0.00" timeLoss="21.81" rerouteNo="0" devices="tripinfo_f_0_14.7" vType="DEFAULT_VEHTYPE" speedFactor="1.06" vaporized=""/>
    <tripinfo id="f_0_3.1" depart="5.00" departLane="C3C4_0" departPos="5.10" departSpeed="0.00" departDelay="1.00" arrival="146.00" arrivalLane="C5C6_0" arrivalPos="491.30" arrivalSpeed="10.57" duration="141.00" routeLength="1493.50" waitingTime="0.00" waitingCount="0" stopTime="0.00" timeLoss="10.44" rerouteNo="0" devices="tripinfo_f_0_3.1" vType="DEFAULT_VEHTYPE" speedFactor="0.83" vaporized=""/>
    <tripinfo id="f_0_15.5" depart="15.00" departLane="E0E1_0" departPos="5.10" departSpeed="0.00" departDelay="3.00" arrival="146.00" arrivalLane="E2E3_0" arrivalPos="492.80" arrivalSpeed="11.92" duration="131.00" routeLength="1494.90" waitingTime="0.00" waitingCount="0" stopTime="0.00" timeLoss="12.90" rerouteNo="0" devices="tripinfo_f_0_15.5" vType="DEFAULT_VEHTYPE" speedFactor="0.91" vaporized=""/>
    <tripinfo id="f_0_3.2" depart="8.00" departLane="C3C4_0" departPos="5.10" departSpeed="0.00" departDelay="1.00" arrival="148.00" arrivalLane="C5C6_0" arrivalPos="491.30" arrivalSpeed="13.23" duration="140.00" routeLength="1493.50" waitingTime="0.00" waitingCount="0" stopTime="0.00" timeLoss="34.93" rerouteNo="0" devices="tripinfo_f_0_3.2" vType="DEFAULT_VEHTYPE" speedFactor="1.03" vaporized=""/>
    <tripinfo id="f_0_11.6" depart="19.00" departLane="C0C1_0" departPos="5.10" departSpeed="0.00" departDelay="7.00" arrival="148.00" arrivalLane="C2C3_0" arrivalPos="492.80" arrivalSpeed="11.31" duration="129.00" routeLength="1494.90" waitingTime="0.00" waitingCount="0" stopTime="0.00" timeLoss="9.50" rerouteNo="0" devices="tripinfo_f_0_11.6" vType="DEFAULT_VEHTYPE" speedFactor="0.91" vaporized=""/>
    <tripinfo id="f_0_15.6" depart="18.00" departLane="E0E1_0" departPos="5.10" departSpeed="0.00" departDelay="5.00" arrival="148.00" arrivalLane="E2E3_0" arrivalPos="492.80" arrivalSpeed="13.09" duration="130.00" routeLength="1494.90" waitingTime="0.00" waitingCount="0" stopTime="0.00" timeLoss="16.70" rerouteNo="0" devices="tripinfo_f_0_15.6" vType="DEFAULT_VEHTYPE" speedFactor="0.96" vaporized=""/>
    <tripinfo id="f_0_14.8" depart="25.00" departLane="E4E3_0" departPos="5.10" departSpeed="0.00" departDelay="5.00" arrival="148.00" arrivalLane="E2E1_0" arrivalPos="491.30" arrivalSpeed="13.06" duration="123.00" routeLength="1493.50" waitingTime="0.00" waitingCount="0" stopTime="0.00" timeLoss="9.43" rerouteNo="0" devices="tripinfo_f_0_14.8" vType="DEFAULT_VEHTYPE" speedFactor="0.95" vaporized=""/>
    <tripinfo id="f_0_3.3" depart="13.00" departLane="C3C4_0" departPos="5.10" departSpeed="0.00" departDelay="0.00" arrival="149.00" arrivalLane="C5C6_0" arrivalPos="491.30" arrivalSpeed="13.64" duration="136.00" routeLength="1493.50" waitingTime="0.00" waitingCount="0" stopTime="0.00" timeLoss="30.77" rerouteNo="0" devices="tripinfo_f_0_3.3" vType="DEFAULT_VEHTYPE" speedFactor="1.02" vaporized=""/>
    <tripinfo id="f_0_11.7" depart="22.00" departLane="C0C1_0" departPos="5.10" departSpeed="0.00" departDelay="9.00" arrival="149.00" arrivalLane="C2C3_0" arrivalPos="492.80" arrivalSpeed="12.17" duration="127.00" routeLength="1494.90" waitingTime="0.00" waitingCount="0" stopTime="0.00" timeLoss="12.39" rerouteNo="0" devices="tripinfo_f_0_11.7" vType="DEFAULT_VEHTYPE" speedFactor="0.94" vaporized=""/>
    <tripinfo id="f_0_15.7" depart="21.00" departLane="E0E1_0" departPos="5.10" departSpeed="0.00" departDelay="7.00" arrival="150.00" arrivalLane="E2E3_0" arrivalPos="492.80" arrivalSpeed="13.24" duration="129.00" routeLength="1494.90" waitingTime="0.00" waitingCount="0" stopTime="0.00" timeLoss="18.55" rerouteNo="0" devices="tripinfo_f_0_15.7" vType="DEFAULT_VEHTYPE" speedFactor="0.98" vaporized=""/>
    <tripinfo id="f_0_3.4" depart="16.00" departLane="C3C4_0" departPos="5.10" departSpeed="0.00" departDelay="1.00" arrival="151.00" arrivalLane="C5C6_0" arrivalPos="491.30" arrivalSpeed="13.20" duration="135.00" routeLength="1493.50" waitingTime="0.00" waitingCount="0" stopTime="0.00" timeLoss="30.79" rerouteNo="0" devices="tripinfo_f_0_3.4" vType="DEFAULT_VEHTYPE" speedFactor="1.03" vaporized=""/>
    <tripinfo id="f_0_11.8" depart="25.00" departLane="C0C1_0" departPos="5.10" departSpeed="0.00" departDelay="9.00" arrival="151.00" arrivalLane="C2C3_0" arrivalPos="492.80" arrivalSpeed="14.92" duration="126.00" routeLength="1494.90" waitingTime="0.00" waitingCount="0" stopTime="0.00" timeLoss="31.74" rerouteNo="0" devices="tripinfo_f_0_11.8" vType="DEFAULT_VEHTYPE" speedFactor="1.15" vaporized=""/>
    <tripinfo id="f_0_15.8" depart="24.00" departLane="E0E1_0" departPos="5.10" departSpeed="0.00" departDelay="8.00" arrival="151.00" arrivalLane="E2E3_0" arrivalPos="492.80" arrivalSpeed="12.80" duration="127.00" routeLength="1494.90" waitingTime="0.00" waitingCount="0" stopTime="0.00" timeLoss="16.57" rerouteNo="0" devices="tripinfo_f_0_15.8" vType="DEFAULT_VEHTYPE" speedFactor="0.98" vaporized=""/>
    <tripinfo id="f_0_14.9" depart="28.00" departLane="E4E3_0" departPos="5.10" departSpeed="0.00" departDelay="5.00" arrival="151.00" arrivalLane="E2E1_0" arrivalPos="491.30" arrivalSpeed="12.24" duration="123.00" routeLength="1493.50" waitingTime="0.00" waitingCount="0" stopTime="0.00" timeLoss="8.69" rerouteNo="0" devices="tripinfo_f_0_14.9" vType="DEFAULT_VEHTYPE" speedFactor="0.94" vaporized=""/>
    <tripinfo id="f_0_10.6" depart="18.00" departLane="C4C3_0" departPos="5.10" departSpeed="0.00" departDelay="8.00" arrival="153.00" arrivalLane="C2C1_0" arrivalPos="491.30" arrivalSpeed="10.87" duration="135.00" routeLength="1493.50" waitingTime="0.00" waitingCount="0" stopTime="0.00" timeLoss="9.15" rerouteNo="0" devices="tripinfo_f_0_10.6" vType="DEFAULT_VEHTYPE" speedFactor="0.85" vaporized=""/>
    <tripinfo id="f_0_11.9" depart="28.00" departLane="C0C1_0" departPos="5.10" departSpeed="0.00" departDelay="11.00" arrival="153.00" arrivalLane="C2C3_0" arrivalPos="492.80" arrivalSpeed="13.03" duration="125.00" routeLength="1494.90" waitingTime="0.00" waitingCount="0" stopTime="0.00" timeLoss="17.45" rerouteNo="0" devices="tripinfo_f_0_11.9" vType="DEFAULT_VEHTYPE" speedFactor="1.01" vaporized=""/>
    <tripinfo id="f_0_14.10" depart="31.00" departLane="E4E3_0" departPos="5.10" departSpeed="0.00" departDelay="5.00" arrival="153.00" arrivalLane="E2E1_0" arrivalPos="491.30" arrivalSpeed="13.49" duration="122.00" routeLength="1493.50" waitingTime="0.00" waitingCount="0" stopTime="0.00" timeLoss="17.92" rerouteNo="0" devices="tripinfo_f_0_14.10" vType="DEFAULT_VEHTYPE" speedFactor="1.04" vaporized=""/>
    <tripinfo id="f_0_3.5" depart="32.00" departLane="C3C4_0" departPos="5.10" departSpeed="0.00" departDelay="0.00" arrival="153.00" arrivalLane="C5C6_0" arrivalPos="491.30" arrivalSpeed="13.84" duration="121.00" routeLength="1493.50" waitingTime="0.00" waitingCount="0" stopTime="0.00" timeLoss="19.41" rerouteNo="0" devices="tripinfo_f_0_3.5" vType="DEFAULT_VEHTYPE" speedFactor="1.06" vaporized=""/>
    <tripinfo id="f_0_10.7" depart="21.00" departLane="C4C3_0" departPos="5.10" departSpeed="0.00" departDelay="10.00" arrival="155.00" arrivalLane="C2C1_0" arrivalPos="491.30" arrivalSpeed="12.33" duration="134.00" routeLength="1493.50" waitingTime="0.00" waitingCount="0" stopTime="0.00" timeLoss="22.66" rerouteNo="0" devices="tripinfo_f_0_10.7" vType="DEFAULT_VEHTYPE" speedFactor="0.97" vaporized=""/>
    <tripinfo id="f_0_14.11" depart="34.00" departLane="E4E3_0" departPos="5.10" departSpeed="0.00" departDelay="7.00" arrival="155.00" arrivalLane="E2E1_0" arrivalPos="491.30" arrivalSpeed="13.42" duration="121.00" routeLength="1493.50" waitingTime="0.00" waitingCount="0" stopTime="0.00" timeLoss="14.30" rerouteNo="0" devices="tripinfo_f_0_14.11" vType="DEFAULT_VEHTYPE" speedFactor="1.02" vaporized=""/>
    <tripinfo id="f_0_3.6" depart="35.00" departLane="C3C4_0" departPos="5.10" departSpeed="0.00" departDelay="1.00" arrival="155.00" arrivalLane="C5C6_0" arrivalPos="491.30" arrivalSpeed="14.09" duration="120.00" routeLength="1493.50" waitingTime="0.00" waitingCount="0" stopTime="0.00" timeLoss="16.91" rerouteNo="0" devices="tripinfo_f_0_3.6" vType="DEFAULT_VEHTYPE" speedFactor="1.05" vaporized=""/>
    <tripinfo id="f_0_3.7" depart="38.00" departLane="C3C4_0" departPos="5.10" departSpeed="0.00" departDelay="2.00" arrival="156.00" arrivalLane="C5C6_0" arrivalPos="491.30" arrivalSpeed="15.21" duration="118.00" routeLength="1493.50" waitingTime="0.00" waitingCount="0" stopTime="0.00" timeLoss="23.57" rerouteNo="0" devices="tripinfo_f_0_3.7" vType="DEFAULT_VEHTYPE" speedFactor="1.14" vaporized=""/>
    <tripinfo id="f_0_10.8" depart="24.00" departLane="C4C3_0" departPos="5.10" departSpeed="0.00" departDelay="11.00" arrival="157.00" arrivalLane="C2C1_0" arrivalPos="491.30" arrivalSpeed="13.14" duration="133.00" routeLength="1493.50" waitingTime="0.00" waitingCount="0" stopTime="0.00" timeLoss="21.74" rerouteNo="0" devices="tripinfo_f_0_10.8" vType="DEFAULT_VEHTYPE" speedFactor="0.97" vaporized=""/>
    <tripinfo id="f_0_6.3" depart="42.00" departLane="E7E6_0" departPos="5.10" departSpeed="0.00" departDelay="0.00" arrival="157.00" arrivalLane="E5E4_0" arrivalPos="492.80" arrivalSpeed="13.80" duration="115.00" routeLength="1494.90" waitingTime="0.00" waitingCount="0" stopTime="0.00" timeLoss="7.47" rerouteNo="0" devices="tripinfo_f_0_6.3" vType="DEFAULT_VEHTYPE" speedFactor="1.00" vaporized=""/>
    <tripinfo id="f_0_14.12" depart="37.00" departLane="E4E3_0" departPos="5.10" departSpeed="0.00" departDelay="9.00" arrival="158.00" arrivalLane="E2E1_0" arrivalPos="491.30" arrivalSpeed="12.40" duration="121.00" routeLength="1493.50" waitingTime="0.00" waitingCount="0" stopTime="0.00" timeLoss="7.98" rerouteNo="0" devices="tripinfo_f_0_14.12" vType="DEFAULT_VEHTYPE" speedFactor="0.95" vaporized=""/>
    <tripinfo id="f_0_3.8" depart="41.00" departLane="C3C4_0" departPos="5.10" departSpeed="0.00" departDelay="4.00" arrival="158.00" arrivalLane="C5C6_0" arrivalPos="491.30" arrivalSpeed="14.59" duration="117.00" routeLength="1493.50" waitingTime="0.00" waitingCount="0" stopTime="0.00" timeLoss="17.80" rerouteNo="0" devices="tripinfo_f_0_3.8" vType="DEFAULT_VEHTYPE" speedFactor="1.09" vaporized=""/>
    <tripinfo id="f_0_10.9" depart="27.00" departLane="C4C3_0" departPos="5.10" departSpeed="0.00" departDelay="13.00" arrival="159.00" arrivalLane="C2C1_0" arrivalPos="491.30" arrivalSpeed="12.47" duration="132.00" routeLength="1493.50" waitingTime="0.00" waitingCount="0" stopTime="0.00" timeLoss="21.99" rerouteNo="0" devices="tripinfo_f_0_10.9" vType="DEFAULT_VEHTYPE" speedFactor="0.98" vaporized=""/>
    <tripinfo id="f_0_11.10" depart="31.00" departLane="C0C1_0" departPos="5.10" departSpeed="0.00" departDelay="12.00" arrival="159.00" arrivalLane="C2C3_0" arrivalPos="492.80" arrivalSpeed="11.81" duration="128.00" routeLength="1494.90" waitingTime="0.00" waitingCount="0" stopTime="0.00" timeLoss="8.89" rerouteNo="0" devices="tripinfo_f_0_11.10" vType="DEFAULT_VEHTYPE" speedFactor="0.91" vaporized=""/>
    <tripinfo id="f_0_6.4" depart="45.00" departLane="E7E6_0" departPos="5.10" departSpeed="0.00" departDelay="0.00" arrival="159.00" arrivalLane="E5E4_0" arrivalPos="492.80" arrivalSpeed="14.72" duration="114.00" routeLength="1494.90" waitingTime="0.00" waitingCount="0" stopTime="0.00" timeLoss="14.47" rerouteNo="0" devices="tripinfo_f_0_6.4" vType="DEFAULT_VEHTYPE" speedFactor="1.09" vaporized=""/>
    <tripinfo id="f_0_10.10" depart="30.00" departLane="C4C3_0" departPos="5.10" departSpeed="0.00" departDelay="15.00" arrival="160.00" arrivalLane="C2C1_0" arrivalPos="491.30" arrivalSpeed="12.13" duration="130.00" routeLength="1493.50" waitingTime="0.00" waitingCount="0" stopTime="0.00" timeLoss="18.69" rerouteNo="0" devices="tripinfo_f_0_10.10" vType="DEFAULT_VEHTYPE" speedFactor="0.97" vaporized=""/>
    <tripinfo id="f_0_11.11" depart="34.00" departLane="C0C1_0" departPos="5.10" departSpeed="0.00" departDelay="14.00" arrival="161.00" arrivalLane="C2C3_0" arrivalPos="492.80" arrivalSpeed="13.15" duration="127.00" routeLength="1494.90" waitingTime="0.00" waitingCount="0" stopTime="0.00" timeLoss="13.86" rerouteNo="0" devices="tripinfo_f_0_11.11" vType="DEFAULT_VEHTYPE" speedFactor="0.96" vaporized=""/>
    <tripinfo id="f_0_10.11" depart="33.00" departLane="C4C3_0" departPos="5.10" departSpeed="0.00" departDelay="15.00" arrival="163.00" arrivalLane="C2C1_0" arrivalPos="491.30" arrivalSpeed="12.06" duration="130.00" routeLength="1493.50" waitingTime="0.00" waitingCount="0" stopTime="0.00" timeLoss="9.22" rerouteNo="0" devices="tripinfo_f_0_10.11" vType="DEFAULT_VEHTYPE" speedFactor="0.89" vaporized=""/>
    <tripinfo id="f_0_11.12" depart="37.00" departLane="C0C1_0" departPos="5.10" departSpeed="0.00" departDelay="16.00" arrival="163.00" arrivalLane="C2C3_0" arrivalPos="492.80" arrivalSpeed="14.59" duration="126.00" routeLength="1494.90" waitingTime="0.00" waitingCount="0" stopTime="0.00" timeLoss="23.97" rerouteNo="0" devices="tripinfo_f_0_11.12" vType="DEFAULT_VEHTYPE" speedFactor="1.06" vaporized=""/>
    <tripinfo id="f_0_11.13" depart="40.00" departLane="C0C1_0" departPos="5.10" departSpeed="0.00" departDelay="16.00" arrival="164.00" arrivalLane="C2C3_0" arrivalPos="492.80" arrivalSpeed="13.25" duration="124.00" routeLength="1494.90" waitingTime="0.00" waitingCount="0" stopTime="0.00" timeLoss="18.58" rerouteNo="0" devices="tripinfo_f_0_11.13" vType="DEFAULT_VEHTYPE" speedFactor="1.02" vaporized=""/>