<?xml version="1.0" encoding="UTF-8"?>

<!-- generated on 2024-08-24 12:29:11 by Eclipse SUMO sumo Version 1.17.0
<configuration xmlns:xsi="http://www.w3.org/2001/XMLSchema-instance" xsi:noNamespaceSchemaLocation="http://sumo.dlr.de/xsd/sumoConfiguration.xsd">

    <input>
        <net-file value="project_static.net.xml"/>
        <route-files value="project_5.rou.xml"/>
        <additional-files value="project.add.xml"/>
    </input>

    <output>
        <summary-output value="summaries\\summary_project_part.xml"/>
        <tripinfo-output value="summaries\\tripinfos_project_part.xml"/>
    </output>

    <processing>
        <time-to-teleport value="-1"/>
    </processing>

    <report>
        <no-step-log value="true"/>
    </report>

    <traci_server>
        <remote-port value="49484"/>
    </traci_server>

</configuration>
-->

<tripinfos xmlns:xsi="http://www.w3.org/2001/XMLSchema-instance" xsi:noNamespaceSchemaLocation="http://sumo.dlr.de/xsd/tripinfo_file.xsd">
    <tripinfo id="f_0_0.0" depart="2.00" departLane="1i_0" departPos="5.10" departSpeed="0.00" departDelay="0.00" arrival="54.00" arrivalLane="2o_0" arrivalPos="489.60" arrivalSpeed="44.02" duration="52.00" routeLength="994.90" waitingTime="1.00" waitingCount="1" stopTime="0.00" timeLoss="33.90" rerouteNo="0" devices="tripinfo_f_0_0.0" vType="DEFAULT_VEHTYPE" speedFactor="1.06" vaporized=""/>
    <tripinfo id="f_0_0.1" depart="5.00" departLane="1i_0" departPos="5.10" departSpeed="0.00" departDelay="0.00" arrival="55.00" arrivalLane="2o_1" arrivalPos="489.60" arrivalSpeed="44.80" duration="50.00" routeLength="994.90" waitingTime="1.00" waitingCount="1" stopTime="0.00" timeLoss="31.58" rerouteNo="0" devices="tripinfo_f_0_0.1" vType="DEFAULT_VEHTYPE" speedFactor="0.94" vaporized=""/>
    <tripinfo id="f_0_0.2" depart="8.00" departLane="1i_0" departPos="5.10" departSpeed="0.00" departDelay="1.00" arrival="56.00" arrivalLane="2o_1" arrivalPos="489.60" arrivalSpeed="42.73" duration="48.00" routeLength="994.90" waitingTime="0.00" waitingCount="0" stopTime="0.00" timeLoss="29.86" rerouteNo="0" devices="tripinfo_f_0_0.2" vType="DEFAULT_VEHTYPE" speedFactor="1.01" vaporized=""/>
    <tripinfo id="f_0_0.3" depart="11.00" departLane="1i_0" departPos="5.10" departSpeed="0.00" departDelay="1.00" arrival="58.00" arrivalLane="2o_1" arrivalPos="489.60" arrivalSpeed="44.75" duration="47.00" routeLength="994.90" waitingTime="0.00" waitingCount="0" stopTime="0.00" timeLoss="28.38" rerouteNo="0" devices="tripinfo_f_0_0.3" vType="DEFAULT_VEHTYPE" speedFactor="1.08" vaporized=""/>
    <tripinfo id="f_0_0.4" depart="15.00" departLane="1i_0" departPos="5.10" departSpeed="0.00" departDelay="0.00" arrival="59.00" arrivalLane="2o_0" arrivalPos="489.60" arrivalSpeed="44.22" duration="44.00" routeLength="994.90" waitingTime="0.00" waitingCount="0" stopTime="0.00" timeLoss="25.64" rerouteNo="0" devices="tripinfo_f_0_0.4" vType="DEFAULT_VEHTYPE" speedFactor="1.03" vaporized=""/>
    <tripinfo id="f_0_0.5" depart="18.00" departLane="1i_0" departPos="5.10" departSpeed="0.00" departDelay="2.00" arrival="59.00" arrivalLane="2o_1" arrivalPos="489.60" arrivalSpeed="44.82" duration="41.00" routeLength="994.90" waitingTime="0.00" waitingCount="0" stopTime="0.00" timeLoss="20.59" rerouteNo="0" devices="tripinfo_f_0_0.5" vType="DEFAULT_VEHTYPE" speedFactor="0.83" vaporized=""/>
    <tripinfo id="f_0_0.6" depart="21.00" departLane="1i_0" departPos="5.10" departSpeed="0.00" departDelay="3.00" arrival="60.00" arrivalLane="2o_1" arrivalPos="489.60" arrivalSpeed="45.52" duration="39.00" routeLength="994.90" waitingTime="0.00" waitingCount="0" stopTime="0.00" timeLoss="20.89" rerouteNo="0" devices="tripinfo_f_0_0.6" vType="DEFAULT_VEHTYPE" speedFactor="1.05" vaporized=""/>
    <tripinfo id="f_0_0.7" depart="24.00" departLane="1i_0" departPos="5.10" departSpeed="0.00" departDelay="4.00" arrival="81.00" arrivalLane="2o_0" arrivalPos="489.60" arrivalSpeed="45.79" duration="57.00" routeLength="994.90" waitingTime="5.00" waitingCount="1" stopTime="0.00" timeLoss="37.70" rerouteNo="0" devices="tripinfo_f_0_0.7" vType="DEFAULT_VEHTYPE" speedFactor="0.89" vaporized=""/>
    <tripinfo id="f_0_0.8" depart="27.00" departLane="1i_0" departPos="5.10" departSpeed="0.00" departDelay="5.00" arrival="82.00" arrivalLane="2o_0" arrivalPos="489.60" arrivalSpeed="43.20" duration="55.00" routeLength="994.90" waitingTime="3.00" waitingCount="1" stopTime="0.00" timeLoss="36.53" rerouteNo="0" devices="tripinfo_f_0_0.8" vType="DEFAULT_VEHTYPE" speedFactor="0.94" vaporized=""/>
    <tripinfo id="f_0_0.9" depart="30.00" departLane="1i_0" departPos="5.10" departSpeed="0.00" departDelay="3.00" arrival="82.00" arrivalLane="2o_1" arrivalPos="489.60" arrivalSpeed="44.37" duration="52.00" routeLength="994.90" waitingTime="1.00" waitingCount="1" stopTime="0.00" timeLoss="32.37" rerouteNo="0" devices="tripinfo_f_0_0.9" vType="DEFAULT_VEHTYPE" speedFactor="0.86" vaporized=""/>
    <tripinfo id="f_0_0.10" depart="33.00" departLane="1i_0" departPos="5.10" departSpeed="0.00" departDelay="4.00" arrival="84.00" arrivalLane="2o_1" arrivalPos="489.60" arrivalSpeed="46.11" duration="51.00" routeLength="994.90" waitingTime="0.00" waitingCount="0" stopTime="0.00" timeLoss="32.39" rerouteNo="0" devices="tripinfo_f_0_0.10" vType="DEFAULT_VEHTYPE" speedFactor="1.09" vaporized=""/>
    <tripinfo id="f_0_1.1" depart="43.00" departLane="4i_0" departPos="5.10" departSpeed="0.00" departDelay="2.00" arrival="94.00" arrivalLane="3o_1" arrivalPos="489.60" arrivalSpeed="45.28" duration="51.00" routeLength="994.90" waitingTime="1.00" waitingCount="1" stopTime="0.00" timeLoss="32.70" rerouteNo="0" devices="tripinfo_f_0_1.1" vType="DEFAULT_VEHTYPE" speedFactor="1.05" vaporized=""/>
    <tripinfo id="f_0_1.0" depart="40.00" departLane="4i_0" departPos="5.10" departSpeed="0.00" departDelay="0.00" arrival="95.00" arrivalLane="3o_0" arrivalPos="489.60" arrivalSpeed="44.11" duration="55.00" routeLength="994.90" waitingTime="5.00" waitingCount="1" stopTime="0.00" timeLoss="36.51" rerouteNo="0" devices="tripinfo_f_0_1.0" vType="DEFAULT_VEHTYPE" speedFactor="1.03" vaporized=""/>
    <tripinfo id="f_0_1.2" depart="46.00" departLane="4i_0" departPos="5.10" departSpeed="0.00" departDelay="3.00" arrival="95.00" arrivalLane="3o_1" arrivalPos="489.60" arrivalSpeed="44.64" duration="49.00" routeLength="994.90" waitingTime="0.00" waitingCount="0" stopTime="0.00" timeLoss="31.02" rerouteNo="0" devices="tripinfo_f_0_1.2" vType="DEFAULT_VEHTYPE" speedFactor="1.12" vaporized=""/>
    <tripinfo id="f_0_1.4" depart="52.00" departLane="4i_0" departPos="5.10" departSpeed="0.00" departDelay="5.00" arrival="96.00" arrivalLane="3o_0" arrivalPos="489.60" arrivalSpeed="44.85" duration="44.00" routeLength="994.90" waitingTime="0.00" waitingCount="0" stopTime="0.00" timeLoss="25.83" rerouteNo="0" devices="tripinfo_f_0_1.4" vType="DEFAULT_VEHTYPE" speedFactor="0.93" vaporized=""/>
    <tripinfo id="f_0_1.3" depart="49.00" departLane="4i_0" departPos="5.10" departSpeed="0.00" departDelay="4.00" arrival="97.00" arrivalLane="3o_1" arrivalPos="489.60" arrivalSpeed="45.87" duration="48.00" routeLength="994.90" waitingTime="0.00" waitingCount="0" stopTime="0.00" timeLoss="29.47" rerouteNo="0" devices="tripinfo_f_0_1.3" vType="DEFAULT_VEHTYPE" speedFactor="0.99" vaporized=""/>
    <tripinfo id="f_0_1.5" depart="55.00" departLane="4i_0" departPos="5.10" departSpeed="0.00" departDelay="7.00" arrival="98.00" arrivalLane="3o_1" arrivalPos="489.60" arrivalSpeed="44.36" duration="43.00" routeLength="994.90" waitingTime="0.00" waitingCount="0" stopTime="0.00" timeLoss="23.85" rerouteNo="0" devices="tripinfo_f_0_1.5" vType="DEFAULT_VEHTYPE" speedFactor="0.88" vaporized=""/>
    <tripinfo id="f_0_1.6" depart="58.00" departLane="4i_0" departPos="5.10" departSpeed="0.00" departDelay="9.00" arrival="99.00" arrivalLane="3o_1" arrivalPos="489.60" arrivalSpeed="44.33" duration="41.00" routeLength="994.90" waitingTime="0.00" waitingCount="0" stopTime="0.00" timeLoss="23.08" rerouteNo="0" devices="tripinfo_f_0_1.6" vType="DEFAULT_VEHTYPE" speedFactor="0.94" vaporized=""/>
    <tripinfo id="f_0_1.7" depart="61.00" departLane="4i_0" departPos="5.10" departSpeed="0.00" departDelay="11.00" arrival="101.00" arrivalLane="3o_1" arrivalPos="489.60" arrivalSpeed="47.35" duration="40.00" routeLength="994.90" waitingTime="0.00" waitingCount="0" stopTime="0.00" timeLoss="21.51" rerouteNo="0" devices="tripinfo_f_0_1.7" vType="DEFAULT_VEHTYPE" speedFactor="0.94" vaporized=""/>
    <tripinfo id="f_0_1.8" depart="64.00" departLane="4i_0" departPos="5.10" departSpeed="0.00" departDelay="12.00" arrival="102.00" arrivalLane="3o_0" arrivalPos="489.60" arrivalSpeed="46.23" duration="38.00" routeLength="994.90" waitingTime="0.00" waitingCount="0" stopTime="0.00" timeLoss="19.69" rerouteNo="0" devices="tripinfo_f_0_1.8" vType="DEFAULT_VEHTYPE" speedFactor="1.16" vaporized=""/>
    <tripinfo id="f_0_1.9" depart="67.00" departLane="4i_0" departPos="5.10" departSpeed="0.00" departDelay="14.00" arrival="102.00" arrivalLane="3o_1" arrivalPos="489.60" arrivalSpeed="48.03" duration="35.00" routeLength="994.90" waitingTime="0.00" waitingCount="0" stopTime="0.00" timeLoss="16.95" rerouteNo="0" devices="tripinfo_f_0_1.9" vType="DEFAULT_VEHTYPE" speedFactor="1.02" vaporized=""/>
    <tripinfo id="f_0_1.10" depart="70.00" departLane="4i_0" departPos="5.10" departSpeed="0.00" departDelay="16.00" arrival="104.00" arrivalLane="3o_0" arrivalPos="489.60" arrivalSpeed="51.91" duration="34.00" routeLength="994.90" waitingTime="0.00" waitingCount="0" stopTime="0.00" timeLoss="15.66" rerouteNo="0" devices="tripinfo_f_0_1.10" vType="DEFAULT_VEHTYPE" speedFactor="1.01" vaporized=""/>
    <tripinfo id="f_0_1.11" depart="73.00" departLane="4i_0" departPos="5.10" departSpeed="0.00" departDelay="17.00" arrival="106.00" arrivalLane="3o_0" arrivalPos="489.60" arrivalSpeed="54.74" duration="33.00" routeLength="994.90" waitingTime="0.00" waitingCount="0" stopTime="0.00" timeLoss="14.35" rerouteNo="0" devices="tripinfo_f_0_1.11" vType="DEFAULT_VEHTYPE" speedFactor="0.97" vaporized=""/>
    <tripinfo id="f_0_1.12" depart="76.00" departLane="4i_0" departPos="5.10" departSpeed="0.00" departDelay="18.00" arrival="109.00" arrivalLane="3o_0" arrivalPos="489.60" arrivalSpeed="53.05" duration="33.00" routeLength="994.90" waitingTime="0.00" waitingCount="0" stopTime="0.00" timeLoss="14.24" rerouteNo="0" devices="tripinfo_f_0_1.12" vType="DEFAULT_VEHTYPE" speedFactor="0.89" vaporized=""/>
    <tripinfo id="f_0_1.13" depart="79.00" departLane="4i_0" departPos="5.10" departSpeed="0.00" departDelay="14.00" arrival="112.00" arrivalLane="3o_0" arrivalPos="489.60" arrivalSpeed="48.39" duration="33.00" routeLength="994.90" waitingTime="0.00" waitingCount="0" stopTime="0.00" timeLoss="12.88" rerouteNo="0" devices="tripinfo_f_0_1.13" vType="DEFAULT_VEHTYPE" speedFactor="0.83" vaporized=""/>
    <tripinfo id="f_0_2.1" depart="83.00" departLane="2i_0" departPos="5.10" departSpeed="0.00" departDelay="1.00" arrival="118.00" arrivalLane="1o_1" arrivalPos="489.60" arrivalSpeed="54.46" duration="35.00" routeLength="994.90" waitingTime="0.00" waitingCount="0" stopTime="0.00" timeLoss="16.84" rerouteNo="0" devices="tripinfo_f_0_2.1" vType="DEFAULT_VEHTYPE" speedFactor="0.95" vaporized=""/>
    <tripinfo id="f_0_2.2" depart="86.00" departLane="2i_0" departPos="5.10" departSpeed="0.00" departDelay="3.00" arrival="120.00" arrivalLane="1o_1" arrivalPos="489.60" arrivalSpeed="55.16" duration="34.00" routeLength="994.90" waitingTime="0.00" waitingCount="0" stopTime="0.00" timeLoss="15.15" rerouteNo="0" devices="tripinfo_f_0_2.2" vType="DEFAULT_VEHTYPE" speedFactor="1.13" vaporized=""/>
    <tripinfo id="f_0_2.3" depart="89.00" departLane="2i_0" departPos="5.10" departSpeed="0.00" departDelay="5.00" arrival="121.00" arrivalLane="1o_1" arrivalPos="489.60" arrivalSpeed="55.32" duration="32.00" routeLength="994.90" waitingTime="0.00" waitingCount="0" stopTime="0.00" timeLoss="13.97" rerouteNo="0" devices="tripinfo_f_0_2.3" vType="DEFAULT_VEHTYPE" speedFactor="0.93" vaporized=""/>
    <tripinfo id="f_0_2.0" depart="80.00" departLane="2i_0" departPos="5.10" departSpeed="0.00" departDelay="0.00" arrival="123.00" arrivalLane="1o_0" arrivalPos="489.60" arrivalSpeed="42.91" duration="43.00" routeLength="994.90" waitingTime="0.00" waitingCount="0" stopTime="0.00" timeLoss="24.82" rerouteNo="0" devices="tripinfo_f_0_2.0" vType="DEFAULT_VEHTYPE" speedFactor="0.92" vaporized=""/>
    <tripinfo id="f_0_2.4" depart="92.00" departLane="2i_0" departPos="5.10" departSpeed="0.00" departDelay="5.00" arrival="126.00" arrivalLane="1o_0" arrivalPos="489.60" arrivalSpeed="51.77" duration="34.00" routeLength="994.90" waitingTime="0.00" waitingCount="0" stopTime="0.00" timeLoss="15.35" rerouteNo="0" devices="tripinfo_f_0_2.4" vType="DEFAULT_VEHTYPE" speedFactor="1.18" vaporized=""/>
    <tripinfo id="f_0_2.5" depart="95.00" departLane="2i_0" departPos="5.10" departSpeed="0.00" departDelay="7.00" arrival="127.00" arrivalLane="1o_0" arrivalPos="489.60" arrivalSpeed="54.69" duration="32.00" routeLength="994.90" waitingTime="0.00" waitingCount="0" stopTime="0.00" timeLoss="14.06" rerouteNo="0" devices="tripinfo_f_0_2.5" vType="DEFAULT_VEHTYPE" speedFactor="1.15" vaporized=""/>
    <tripinfo id="f_0_1.14" depart="82.00" departLane="4i_0" departPos="5.10" departSpeed="0.00" departDelay="14.00" arrival="140.00" arrivalLane="3o_0" arrivalPos="489.60" arrivalSpeed="44.84" duration="58.00" routeLength="994.90" waitingTime="6.00" waitingCount="1" stopTime="0.00" timeLoss="38.58" rerouteNo="0" devices="tripinfo_f_0_1.14" vType="DEFAULT_VEHTYPE" speedFactor="0.87" vaporized=""/>
    <tripinfo id="f_0_2.7" depart="101.00" departLane="2i_0" departPos="5.10" departSpeed="0.00" departDelay="10.00" arrival="153.00" arrivalLane="1o_1" arrivalPos="489.60" arrivalSpeed="44.78" duration="52.00" routeLength="994.90" waitingTime="1.00" waitingCount="1" stopTime="0.00" timeLoss="33.42" rerouteNo="0" devices="tripinfo_f_0_2.7" vType="DEFAULT_VEHTYPE" speedFactor="1.17" vaporized=""/>
    <tripinfo id="f_0_2.6" depart="98.00" departLane="2i_0" departPos="5.10" departSpeed="0.00" departDelay="8.00" arrival="154.00" arrivalLane="1o_0" arrivalPos="489.60" arrivalSpeed="44.20" duration="56.00" routeLength="994.90" waitingTime="5.00" waitingCount="1" stopTime="0.00" timeLoss="37.46" rerouteNo="0" devices="tripinfo_f_0_2.6" vType="DEFAULT_VEHTYPE" speedFactor="1.01" vaporized=""/>
    <tripinfo id="f_0_2.8" depart="104.00" departLane="2i_0" departPos="5.10" departSpeed="0.00" departDelay="12.00" arrival="154.00" arrivalLane="1o_1" arrivalPos="489.60" arrivalSpeed="43.81" duration="50.00" routeLength="994.90" waitingTime="0.00" waitingCount="0" stopTime="0.00" timeLoss="31.99" rerouteNo="0" devices="tripinfo_f_0_2.8" vType="DEFAULT_VEHTYPE" speedFactor="0.99" vaporized=""/>
    <tripinfo id="f_0_2.10" depart="110.00" departLane="2i_0" departPos="5.10" departSpeed="0.00" departDelay="15.00" arrival="155.00" arrivalLane="1o_0" arrivalPos="489.60" arrivalSpeed="42.90" duration="45.00" routeLength="994.90" waitingTime="0.00" waitingCount="0" stopTime="0.00" timeLoss="27.00" rerouteNo="0" devices="tripinfo_f_0_2.10" vType="DEFAULT_VEHTYPE" speedFactor="0.97" vaporized=""/>
    <tripinfo id="f_0_2.9" depart="107.00" departLane="2i_0" departPos="5.10" departSpeed="0.00" departDelay="13.00" arrival="156.00" arrivalLane="1o_1" arrivalPos="489.60" arrivalSpeed="45.08" duration="49.00" routeLength="994.90" waitingTime="0.00" waitingCount="0" stopTime="0.00" timeLoss="30.68" rerouteNo="0" devices="tripinfo_f_0_2.9" vType="DEFAULT_VEHTYPE" speedFactor="1.02" vaporized=""/>
    <tripinfo id="f_0_2.11" depart="113.00" departLane="2i_0" departPos="5.10" departSpeed="0.00" departDelay="17.00" arrival="157.00" arrivalLane="1o_1" arrivalPos="489.60" arrivalSpeed="44.73" duration="44.00" routeLength="994.90" waitingTime="0.00" waitingCount="0" stopTime="0.00" timeLoss="25.95" rerouteNo="0" devices="tripinfo_f_0_2.11" vType="DEFAULT_VEHTYPE" speedFactor="1.18" vaporized=""/>
    <tripinfo id="f_0_2.12" depart="116.00" departLane="2i_0" departPos="5.10" departSpeed="0.00" departDelay="19.00" arrival="158.00" arrivalLane="1o_0" arrivalPos="489.60" arrivalSpeed="45.49" duration="42.00" routeLength="994.90" waitingTime="0.00" waitingCount="0" stopTime="0.00" timeLoss="24.00" rerouteNo="0" devices="tripinfo_f_0_2.12" vType="DEFAULT_VEHTYPE" speedFactor="1.10" vaporized=""/>
    <tripinfo id="f_0_2.13" depart="119.00" departLane="2i_0" departPos="5.10" departSpeed="0.00" departDelay="20.00" arrival="159.00" arrivalLane="1o_1" arrivalPos="489.60" arrivalSpeed="46.61" duration="40.00" routeLength="994.90" waitingTime="0.00" waitingCount="0" stopTime="0.00" timeLoss="20.91" rerouteNo="0" devices="tripinfo_f_0_2.13" vType="DEFAULT_VEHTYPE" speedFactor="0.90" vaporized=""/>
    <tripinfo id="f_0_2.14" depart="122.00" departLane="2i_0" departPos="5.10" departSpeed="0.00" departDelay="22.00" arrival="160.00" arrivalLane="1o_0" arrivalPos="489.60" arrivalSpeed="47.53" duration="38.00" routeLength="994.90" waitingTime="0.00" waitingCount="0" stopTime="0.00" timeLoss="19.62" rerouteNo="0" devices="tripinfo_f_0_2.14" vType="DEFAULT_VEHTYPE" speedFactor="1.03" vaporized=""/>
    <tripinfo id="f_0_2.15" depart="125.00" departLane="2i_0" departPos="5.10" departSpeed="0.00" departDelay="24.00" arrival="160.00" arrivalLane="1o_1" arrivalPos="489.60" arrivalSpeed="46.87" duration="35.00" routeLength="994.90" waitingTime="0.00" waitingCount="0" stopTime="0.00" timeLoss="16.92" rerouteNo="0" devices="tripinfo_f_0_2.15" vType="DEFAULT_VEHTYPE" speedFactor="0.96" vaporized=""/>
    <tripinfo id="f_0_2.16" depart="128.00" departLane="2i_0" departPos="5.10" departSpeed="0.00" departDelay="23.00" arrival="162.00" arrivalLane="1o_0" arrivalPos="489.60" arrivalSpeed="51.82" duration="34.00" routeLength="994.90" waitingTime="0.00" waitingCount="0" stopTime="0.00" timeLoss="15.55" rerouteNo="0" devices="tripinfo_f_0_2.16" vType="DEFAULT_VEHTYPE" speedFactor="1.09" vaporized=""/>
    <tripinfo id="f_0_2.17" depart="131.00" departLane="2i_0" departPos="5.10" departSpeed="0.00" departDelay="22.00" arrival="163.00" arrivalLane="1o_0" arrivalPos="489.60" arrivalSpeed="52.36" duration="32.00" routeLength="994.90" waitingTime="0.00" waitingCount="0" stopTime="0.00" timeLoss="13.98" rerouteNo="0" devices="tripinfo_f_0_2.17" vType="DEFAULT_VEHTYPE" speedFactor="1.04" vaporized=""/>
    <tripinfo id="f_0_3.0" depart="120.00" departLane="3i_0" departPos="5.10" departSpeed="0.00" departDelay="0.00" arrival="176.00" arrivalLane="4o_0" arrivalPos="489.60" arrivalSpeed="42.74" duration="56.00" routeLength="994.90" waitingTime="7.00" waitingCount="1" stopTime="0.00" timeLoss="37.74" rerouteNo="0" devices="tripinfo_f_0_3.0" vType="DEFAULT_VEHTYPE" speedFactor="1.04" vaporized=""/>
    <tripinfo id="f_0_3.1" depart="123.00" departLane="3i_0" departPos="5.10" departSpeed="0.00" departDelay="1.00" arrival="176.00" arrivalLane="4o_1" arrivalPos="489.60" arrivalSpeed="42.90" duration="53.00" routeLength="994.90" waitingTime="4.00" waitingCount="1" stopTime="0.00" timeLoss="34.54" rerouteNo="0" devices="tripinfo_f_0_3.1" vType="DEFAULT_VEHTYPE" speedFactor="1.09" vaporized=""/>
    <tripinfo id="f_0_3.2" depart="126.00" departLane="3i_0" departPos="5.10" departSpeed="0.00" departDelay="3.00" arrival="178.00" arrivalLane="4o_1" arrivalPos="489.60" arrivalSpeed="44.38" duration="52.00" routeLength="994.90" waitingTime="0.00" waitingCount="0" stopTime="0.00" timeLoss="33.52" rerouteNo="0" devices="tripinfo_f_0_3.2" vType="DEFAULT_VEHTYPE" speedFactor="1.00" vaporized=""/>
    <tripinfo id="f_0_3.3" depart="129.00" departLane="3i_0" departPos="5.10" departSpeed="0.00" departDelay="5.00" arrival="180.00" arrivalLane="4o_1" arrivalPos="489.60" arrivalSpeed="46.22" duration="51.00" routeLength="994.90" waitingTime="0.00" waitingCount="0" stopTime="0.00" timeLoss="31.96" rerouteNo="0" devices="tripinfo_f_0_3.3" vType="DEFAULT_VEHTYPE" speedFactor="0.90" vaporized=""/>
    <tripinfo id="f_0_3.4" depart="135.00" departLane="3i_0" departPos="5.10" departSpeed="0.00" departDelay="0.00" arrival="182.00" arrivalLane="4o_1" arrivalPos="489.60" arrivalSpeed="46.06" duration="47.00" routeLength="994.90" waitingTime="0.00" waitingCount="0" stopTime="0.00" timeLoss="27.31" rerouteNo="0" devices="tripinfo_f_0_3.4" vType="DEFAULT_VEHTYPE" speedFactor="0.88" vaporized=""/>
    <tripinfo id="f_0_3.5" depart="138.00" departLane="3i_0" departPos="5.10" departSpeed="0.00" departDelay="2.00" arrival="182.00" arrivalLane="4o_0" arrivalPos="489.60" arrivalSpeed="44.71" duration="44.00" routeLength="994.90" waitingTime="0.00" waitingCount="0" stopTime="0.00" timeLoss="24.44" rerouteNo="0" devices="tripinfo_f_0_3.5" vType="DEFAULT_VEHTYPE" speedFactor="0.85" vaporized=""/>
    <tripinfo id="f_0_3.6" depart="141.00" departLane="3i_0" departPos="5.10" departSpeed="0.00" departDelay="4.00" arrival="183.00" arrivalLane="4o_1" arrivalPos="489.60" arrivalSpeed="45.17" duration="42.00" routeLength="994.90" waitingTime="0.00" waitingCount="0" stopTime="0.00" timeLoss="22.15" rerouteNo="0" devices="tripinfo_f_0_3.6" vType="DEFAULT_VEHTYPE" speedFactor="0.85" vaporized=""/>
    <tripinfo id="f_0_3.7" depart="144.00" departLane="3i_0" departPos="5.10" departSpeed="0.00" departDelay="5.00" arrival="184.00" arrivalLane="4o_1" arrivalPos="489.60" arrivalSpeed="45.35" duration="40.00" routeLength="994.90" waitingTime="0.00" waitingCount="0" stopTime="0.00" timeLoss="21.98" rerouteNo="0" devices="tripinfo_f_0_3.7" vType="DEFAULT_VEHTYPE" speedFactor="1.17" vaporized=""/>
    <tripinfo id="f_0_3.8" depart="147.00" departLane="3i_0" departPos="5.10" departSpeed="0.00" departDelay="4.00" arrival="186.00" arrivalLane="4o_0" arrivalPos="489.60" arrivalSpeed="47.74" duration="39.00" routeLength="994.90" waitingTime="0.00" waitingCount="0" stopTime="0.00" timeLoss="20.24" rerouteNo="0" devices="tripinfo_f_0_3.8" vType="DEFAULT_VEHTYPE" speedFactor="1.02" vaporized=""/>
    <tripinfo id="f_0_3.9" depart="150.00" departLane="3i_0" departPos="5.10" departSpeed="0.00" departDelay="5.00" arrival="186.00" arrivalLane="4o_1" arrivalPos="489.60" arrivalSpeed="47.46" duration="36.00" routeLength="994.90" waitingTime="0.00" waitingCount="0" stopTime="0.00" timeLoss="17.63" rerouteNo="0" devices="tripinfo_f_0_3.9" vType="DEFAULT_VEHTYPE" speedFactor="1.10" vaporized=""/>
    <tripinfo id="f_0_3.10" depart="153.00" departLane="3i_0" departPos="5.10" departSpeed="0.00" departDelay="6.00" arrival="188.00" arrivalLane="4o_1" arrivalPos="489.60" arrivalSpeed="49.08" duration="35.00" routeLength="994.90" waitingTime="0.00" waitingCount="0" stopTime="0.00" timeLoss="16.22" rerouteNo="0" devices="tripinfo_f_0_3.10" vType="DEFAULT_VEHTYPE" speedFactor="1.00" vaporized=""/>
    <tripinfo id="f_0_3.11" depart="156.00" departLane="3i_0" departPos="5.10" departSpeed="0.00" departDelay="7.00" arrival="189.00" arrivalLane="4o_0" arrivalPos="489.60" arrivalSpeed="52.25" duration="33.00" routeLength="994.90" waitingTime="0.00" waitingCount="0" stopTime="0.00" timeLoss="14.79" rerouteNo="0" devices="tripinfo_f_0_3.11" vType="DEFAULT_VEHTYPE" speedFactor="1.00" vaporized=""/>
    <tripinfo id="f_1_1.0" depart="200.00" departLane="4i_0" departPos="5.10" departSpeed="0.00" departDelay="0.00" arrival="231.00" arrivalLane="3o_0" arrivalPos="489.60" arrivalSpeed="53.29" duration="31.00" routeLength="994.90" waitingTime="0.00" waitingCount="0" stopTime="0.00" timeLoss="12.49" rerouteNo="0" devices="tripinfo_f_1_1.0" vType="DEFAULT_VEHTYPE" speedFactor="0.90" vaporized=""/>
    <tripinfo id="f_1_1.1" depart="204.00" departLane="4i_0" departPos="5.10" departSpeed="0.00" departDelay="0.00" arrival="236.00" arrivalLane="3o_0" arrivalPos="489.60" arrivalSpeed="54.60" duration="32.00" routeLength="994.90" waitingTime="0.00" waitingCount="0" stopTime="0.00" timeLoss="14.01" rerouteNo="0" devices="tripinfo_f_1_1.1" vType="DEFAULT_VEHTYPE" speedFactor="1.02" vaporized=""/>
    <tripinfo id="f_1_3.0" depart="205.00" departLane="3i_0" departPos="5.10" departSpeed="0.00" departDelay="0.00" arrival="237.00" arrivalLane="4o_0" arrivalPos="489.60" arrivalSpeed="55.17" duration="32.00" routeLength="994.90" waitingTime="0.00" waitingCount="0" stopTime="0.00" timeLoss="14.07" rerouteNo="0" devices="tripinfo_f_1_3.0" vType="DEFAULT_VEHTYPE" speedFactor="0.97" vaporized=""/>
    <tripinfo id="f_1_1.2" depart="208.00" departLane="4i_0" departPos="5.10" departSpeed="0.00" departDelay="0.00" arrival="240.00" arrivalLane="3o_0" arrivalPos="489.60" arrivalSpeed="55.52" duration="32.00" routeLength="994.90" waitingTime="0.00" waitingCount="0" stopTime="0.00" timeLoss="13.65" rerouteNo="0" devices="tripinfo_f_1_1.2" vType="DEFAULT_VEHTYPE" speedFactor="1.08" vaporized=""/>
    <tripinfo id="f_1_0.1" depart="212.00" departLane="1i_0" departPos="5.10" departSpeed="0.00" departDelay="2.00" arrival="246.00" arrivalLane="2o_1" arrivalPos="489.60" arrivalSpeed="55.43" duration="34.00" routeLength="994.90" waitingTime="0.00" waitingCount="0" stopTime="0.00" timeLoss="15.46" rerouteNo="0" devices="tripinfo_f_1_0.1" vType="DEFAULT_VEHTYPE" speedFactor="1.02" vaporized=""/>
    <tripinfo id="f_1_2.1" depart="212.00" departLane="2i_0" departPos="5.10" departSpeed="0.00" departDelay="0.00" arrival="246.00" arrivalLane="1o_1" arrivalPos="489.60" arrivalSpeed="55.43" duration="34.00" routeLength="994.90" waitingTime="0.00" waitingCount="0" stopTime="0.00" timeLoss="15.84" rerouteNo="0" devices="tripinfo_f_1_2.1" vType="DEFAULT_VEHTYPE" speedFactor="0.99" vaporized=""/>
    <tripinfo id="f_1_2.2" depart="215.00" departLane="2i_0" departPos="5.10" departSpeed="0.00" departDelay="2.00" arrival="248.00" arrivalLane="1o_1" arrivalPos="489.60" arrivalSpeed="51.82" duration="33.00" routeLength="994.90" waitingTime="0.00" waitingCount="0" stopTime="0.00" timeLoss="13.52" rerouteNo="0" devices="tripinfo_f_1_2.2" vType="DEFAULT_VEHTYPE" speedFactor="0.88" vaporized=""/>
    <tripinfo id="f_1_0.0" depart="209.00" departLane="1i_0" departPos="5.10" departSpeed="0.00" departDelay="0.00" arrival="249.00" arrivalLane="2o_0" arrivalPos="489.60" arrivalSpeed="48.83" duration="40.00" routeLength="994.90" waitingTime="0.00" waitingCount="0" stopTime="0.00" timeLoss="21.80" rerouteNo="0" devices="tripinfo_f_1_0.0" vType="DEFAULT_VEHTYPE" speedFactor="1.12" vaporized=""/>
    <tripinfo id="f_1_0.2" depart="216.00" departLane="1i_0" departPos="5.10" departSpeed="0.00" departDelay="0.00" arrival="250.00" arrivalLane="2o_1" arrivalPos="489.60" arrivalSpeed="54.99" duration="34.00" routeLength="994.90" waitingTime="0.00" waitingCount="0" stopTime="0.00" timeLoss="15.16" rerouteNo="0" devices="tripinfo_f_1_0.2" vType="DEFAULT_VEHTYPE" speedFactor="1.04" vaporized=""/>
    <tripinfo id="f_1_2.3" depart="218.00" departLane="2i_0" departPos="5.10" departSpeed="0.00" departDelay="2.00" arrival="252.00" arrivalLane="1o_1" arrivalPos="489.60" arrivalSpeed="54.77" duration="34.00" routeLength="994.90" waitingTime="0.00" waitingCount="0" stopTime="0.00" timeLoss="15.14" rerouteNo="0" devices="tripinfo_f_1_2.3" vType="DEFAULT_VEHTYPE" speedFactor="1.02" vaporized=""/>
    <tripinfo id="f_1_2.0" depart="201.00" departLane="2i_0" departPos="5.10" departSpeed="0.00" departDelay="0.00" arrival="256.00" arrivalLane="1o_0" arrivalPos="489.60" arrivalSpeed="44.37" duration="55.00" routeLength="994.90" waitingTime="3.00" waitingCount="1" stopTime="0.00" timeLoss="36.33" rerouteNo="0" devices="tripinfo_f_1_2.0" vType="DEFAULT_VEHTYPE" speedFactor="1.14" vaporized=""/>
    <tripinfo id="f_1_2.4" depart="221.00" departLane="2i_0" departPos="5.10" departSpeed="0.00" departDelay="4.00" arrival="257.00" arrivalLane="1o_0" arrivalPos="489.60" arrivalSpeed="45.26" duration="36.00" routeLength="994.90" waitingTime="0.00" waitingCount="0" stopTime="0.00" timeLoss="17.95" rerouteNo="0" devices="tripinfo_f_1_2.4" vType="DEFAULT_VEHTYPE" speedFactor="0.97" vaporized=""/>
    <tripinfo id="f_1_1.4" depart="223.00" departLane="4i_0" departPos="5.10" departSpeed="0.00" departDelay="1.00" arrival="260.00" arrivalLane="3o_1" arrivalPos="489.60" arrivalSpeed="51.09" duration="37.00" routeLength="994.90" waitingTime="0.00" waitingCount="0" stopTime="0.00" timeLoss="18.79" rerouteNo="0" devices="tripinfo_f_1_1.4" vType="DEFAULT_VEHTYPE" speedFactor="1.03" vaporized=""/>
    <tripinfo id="f_1_1.5" depart="226.00" departLane="4i_0" departPos="5.10" departSpeed="0.00" departDelay="1.00" arrival="262.00" arrivalLane="3o_1" arrivalPos="489.60" arrivalSpeed="54.39" duration="36.00" routeLength="994.90" waitingTime="0.00" waitingCount="0" stopTime="0.00" timeLoss="17.18" rerouteNo="0" devices="tripinfo_f_1_1.5" vType="DEFAULT_VEHTYPE" speedFactor="1.09" vaporized=""/>
    <tripinfo id="f_1_1.3" depart="220.00" departLane="4i_0" departPos="5.10" departSpeed="0.00" departDelay="0.00" arrival="264.00" arrivalLane="3o_0" arrivalPos="489.60" arrivalSpeed="46.32" duration="44.00" routeLength="994.90" waitingTime="0.00" waitingCount="0" stopTime="0.00" timeLoss="25.40" rerouteNo="0" devices="tripinfo_f_1_1.3" vType="DEFAULT_VEHTYPE" speedFactor="1.06" vaporized=""/>
    <tripinfo id="f_1_1.6" depart="231.00" departLane="4i_0" departPos="5.10" departSpeed="0.00" departDelay="0.00" arrival="266.00" arrivalLane="3o_0" arrivalPos="489.60" arrivalSpeed="49.85" duration="35.00" routeLength="994.90" waitingTime="0.00" waitingCount="0" stopTime="0.00" timeLoss="16.21" rerouteNo="0" devices="tripinfo_f_1_1.6" vType="DEFAULT_VEHTYPE" speedFactor="1.04" vaporized=""/>