<?xml version="1.0" encoding="UTF-8"?>

<!-- generated on 2024-07-18 15:38:43 by Eclipse SUMO sumo Version 1.17.0
<configuration xmlns:xsi="http://www.w3.org/2001/XMLSchema-instance" xsi:noNamespaceSchemaLocation="http://sumo.dlr.de/xsd/sumoConfiguration.xsd">

    <input>
        <net-file value="triple_actuated.net.xml"/>
        <route-files value="triple_3.rou.xml"/>
    </input>

    <output>
        <summary-output value="control_summaries//summary_triple_actuated_3.xml"/>
        <tripinfo-output value="control_summaries//tripinfos_triple_actuated_3.xml"/>
    </output>

    <processing>
        <time-to-teleport value="-1"/>
    </processing>

    <traci_server>
        <remote-port value="55534"/>
    </traci_server>

</configuration>
-->

<tripinfos xmlns:xsi="http://www.w3.org/2001/XMLSchema-instance" xsi:noNamespaceSchemaLocation="http://sumo.dlr.de/xsd/tripinfo_file.xsd">
    <tripinfo id="f_0_15.0" depart="0.00" departLane="E0E1_0" departPos="5.10" departSpeed="0.00" departDelay="0.00" arrival="118.00" arrivalLane="E2E3_0" arrivalPos="492.80" arrivalSpeed="14.09" duration="118.00" routeLength="1494.90" waitingTime="3.00" waitingCount="1" stopTime="0.00" timeLoss="18.55" rerouteNo="0" devices="tripinfo_f_0_15.0" vType="DEFAULT_VEHTYPE" speedFactor="1.08" vaporized=""/>
    <tripinfo id="f_0_7.0" depart="2.00" departLane="E3E4_0" departPos="5.10" departSpeed="0.00" departDelay="0.00" arrival="118.00" arrivalLane="E5E6_0" arrivalPos="491.30" arrivalSpeed="14.95" duration="116.00" routeLength="1493.50" waitingTime="5.00" waitingCount="1" stopTime="0.00" timeLoss="19.36" rerouteNo="0" devices="tripinfo_f_0_7.0" vType="DEFAULT_VEHTYPE" speedFactor="1.12" vaporized=""/>
    <tripinfo id="f_0_11.0" depart="1.00" departLane="C0C1_0" departPos="5.10" departSpeed="0.00" departDelay="0.00" arrival="119.00" arrivalLane="C2C3_0" arrivalPos="492.80" arrivalSpeed="13.94" duration="118.00" routeLength="1494.90" waitingTime="0.00" waitingCount="0" stopTime="0.00" timeLoss="14.70" rerouteNo="0" devices="tripinfo_f_0_11.0" vType="DEFAULT_VEHTYPE" speedFactor="1.05" vaporized=""/>
    <tripinfo id="f_0_6.0" depart="2.00" departLane="E7E6_0" departPos="5.10" departSpeed="0.00" departDelay="0.00" arrival="119.00" arrivalLane="E5E4_0" arrivalPos="492.80" arrivalSpeed="13.26" duration="117.00" routeLength="1494.90" waitingTime="2.00" waitingCount="1" stopTime="0.00" timeLoss="14.19" rerouteNo="0" devices="tripinfo_f_0_6.0" vType="DEFAULT_VEHTYPE" speedFactor="1.05" vaporized=""/>
    <tripinfo id="f_0_10.0" depart="0.00" departLane="C4C3_0" departPos="5.10" departSpeed="0.00" departDelay="0.00" arrival="120.00" arrivalLane="C2C1_0" arrivalPos="491.30" arrivalSpeed="13.06" duration="120.00" routeLength="1493.50" waitingTime="2.00" waitingCount="1" stopTime="0.00" timeLoss="12.99" rerouteNo="0" devices="tripinfo_f_0_10.0" vType="DEFAULT_VEHTYPE" speedFactor="1.01" vaporized=""/>
    <tripinfo id="f_0_7.1" depart="11.00" departLane="E3E4_0" departPos="5.10" departSpeed="0.00" departDelay="0.00" arrival="120.00" arrivalLane="E5E6_0" arrivalPos="491.30" arrivalSpeed="14.48" duration="109.00" routeLength="1493.50" waitingTime="0.00" waitingCount="0" stopTime="0.00" timeLoss="12.06" rerouteNo="0" devices="tripinfo_f_0_7.1" vType="DEFAULT_VEHTYPE" speedFactor="1.12" vaporized=""/>
    <tripinfo id="f_0_2.0" depart="0.00" departLane="C7C6_0" departPos="5.10" departSpeed="0.00" departDelay="0.00" arrival="121.00" arrivalLane="C5C4_0" arrivalPos="492.80" arrivalSpeed="14.42" duration="121.00" routeLength="1494.90" waitingTime="6.00" waitingCount="1" stopTime="0.00" timeLoss="18.75" rerouteNo="0" devices="tripinfo_f_0_2.0" vType="DEFAULT_VEHTYPE" speedFactor="1.06" vaporized=""/>
    <tripinfo id="f_0_3.0" depart="2.00" departLane="C3C4_0" departPos="5.10" departSpeed="0.00" departDelay="0.00" arrival="122.00" arrivalLane="C5C6_0" arrivalPos="491.30" arrivalSpeed="13.08" duration="120.00" routeLength="1493.50" waitingTime="1.00" waitingCount="1" stopTime="0.00" timeLoss="14.45" rerouteNo="0" devices="tripinfo_f_0_3.0" vType="DEFAULT_VEHTYPE" speedFactor="1.03" vaporized=""/>
    <tripinfo id="f_0_10.1" depart="2.00" departLane="C4C3_0" departPos="5.10" departSpeed="0.00" departDelay="0.00" arrival="122.00" arrivalLane="C2C1_0" arrivalPos="491.30" arrivalSpeed="13.03" duration="120.00" routeLength="1493.50" waitingTime="0.00" waitingCount="0" stopTime="0.00" timeLoss="11.26" rerouteNo="0" devices="tripinfo_f_0_10.1" vType="DEFAULT_VEHTYPE" speedFactor="0.99" vaporized=""/>
    <tripinfo id="f_0_10.2" depart="6.00" departLane="C4C3_0" departPos="5.10" departSpeed="0.00" departDelay="3.00" arrival="124.00" arrivalLane="C2C1_0" arrivalPos="491.30" arrivalSpeed="14.83" duration="118.00" routeLength="1493.50" waitingTime="0.00" waitingCount="0" stopTime="0.00" timeLoss="24.54" rerouteNo="0" devices="tripinfo_f_0_10.2" vType="DEFAULT_VEHTYPE" speedFactor="1.16" vaporized=""/>
    <tripinfo id="f_0_14.0" depart="1.00" departLane="E4E3_0" departPos="5.10" departSpeed="0.00" departDelay="0.00" arrival="125.00" arrivalLane="E2E1_0" arrivalPos="491.30" arrivalSpeed="12.93" duration="124.00" routeLength="1493.50" waitingTime="0.00" waitingCount="0" stopTime="0.00" timeLoss="8.83" rerouteNo="0" devices="tripinfo_f_0_14.0" vType="DEFAULT_VEHTYPE" speedFactor="0.94" vaporized=""/>
    <tripinfo id="f_0_14.1" depart="4.00" departLane="E4E3_0" departPos="5.10" departSpeed="0.00" departDelay="2.00" arrival="127.00" arrivalLane="E2E1_0" arrivalPos="491.30" arrivalSpeed="12.79" duration="123.00" routeLength="1493.50" waitingTime="0.00" waitingCount="0" stopTime="0.00" timeLoss="7.99" rerouteNo="0" devices="tripinfo_f_0_14.1" vType="DEFAULT_VEHTYPE" speedFactor="0.94" vaporized=""/>
    <tripinfo id="f_0_14.2" depart="7.00" departLane="E4E3_0" departPos="5.10" departSpeed="0.00" departDelay="4.00" arrival="128.00" arrivalLane="E2E1_0" arrivalPos="491.30" arrivalSpeed="13.22" duration="121.00" routeLength="1493.50" waitingTime="0.00" waitingCount="0" stopTime="0.00" timeLoss="14.50" rerouteNo="0" devices="tripinfo_f_0_14.2" vType="DEFAULT_VEHTYPE" speedFactor="1.01" vaporized=""/>
    <tripinfo id="f_0_14.3" depart="10.00" departLane="E4E3_0" departPos="5.10" departSpeed="0.00" departDelay="5.00" arrival="130.00" arrivalLane="E2E1_0" arrivalPos="491.30" arrivalSpeed="15.25" duration="120.00" routeLength="1493.50" waitingTime="0.00" waitingCount="0" stopTime="0.00" timeLoss="28.43" rerouteNo="0" devices="tripinfo_f_0_14.3" vType="DEFAULT_VEHTYPE" speedFactor="1.18" vaporized=""/>
    <tripinfo id="f_0_5.0" depart="0.00" departLane="D3D4_0" departPos="5.10" departSpeed="0.00" departDelay="0.00" arrival="131.00" arrivalLane="D5D6_0" arrivalPos="491.30" arrivalSpeed="12.50" duration="131.00" routeLength="1493.50" waitingTime="1.00" waitingCount="1" stopTime="0.00" timeLoss="15.65" rerouteNo="0" devices="tripinfo_f_0_5.0" vType="DEFAULT_VEHTYPE" speedFactor="0.94" vaporized=""/>
    <tripinfo id="f_0_13.0" depart="1.00" departLane="D0D1_0" departPos="5.10" departSpeed="0.00" departDelay="0.00" arrival="132.00" arrivalLane="D2D3_0" arrivalPos="492.80" arrivalSpeed="11.20" duration="131.00" routeLength="1494.90" waitingTime="0.00" waitingCount="0" stopTime="0.00" timeLoss="9.40" rerouteNo="0" devices="tripinfo_f_0_13.0" vType="DEFAULT_VEHTYPE" speedFactor="0.89" vaporized=""/>
    <tripinfo id="f_0_5.1" depart="7.00" departLane="D3D4_0" departPos="5.10" departSpeed="0.00" departDelay="0.00" arrival="132.00" arrivalLane="D5D6_0" arrivalPos="491.30" arrivalSpeed="14.00" duration="125.00" routeLength="1493.50" waitingTime="0.00" waitingCount="0" stopTime="0.00" timeLoss="26.37" rerouteNo="0" devices="tripinfo_f_0_5.1" vType="DEFAULT_VEHTYPE" speedFactor="1.09" vaporized=""/>
    <tripinfo id="f_0_14.4" depart="13.00" departLane="E4E3_0" departPos="5.10" departSpeed="0.00" departDelay="6.00" arrival="132.00" arrivalLane="E2E1_0" arrivalPos="491.30" arrivalSpeed="14.16" duration="119.00" routeLength="1493.50" waitingTime="0.00" waitingCount="0" stopTime="0.00" timeLoss="19.42" rerouteNo="0" devices="tripinfo_f_0_14.4" vType="DEFAULT_VEHTYPE" speedFactor="1.09" vaporized=""/>
    <tripinfo id="f_0_12.0" depart="2.00" departLane="D4D3_0" departPos="5.10" departSpeed="0.00" departDelay="0.00" arrival="134.00" arrivalLane="D2D1_0" arrivalPos="491.30" arrivalSpeed="11.31" duration="132.00" routeLength="1493.50" waitingTime="0.00" waitingCount="0" stopTime="0.00" timeLoss="9.52" rerouteNo="0" devices="tripinfo_f_0_12.0" vType="DEFAULT_VEHTYPE" speedFactor="0.88" vaporized=""/>
    <tripinfo id="f_0_13.1" depart="4.00" departLane="D0D1_0" departPos="5.10" departSpeed="0.00" departDelay="0.00" arrival="134.00" arrivalLane="D2D3_0" arrivalPos="492.80" arrivalSpeed="15.14" duration="130.00" routeLength="1494.90" waitingTime="0.00" waitingCount="0" stopTime="0.00" timeLoss="38.08" rerouteNo="0" devices="tripinfo_f_0_13.1" vType="DEFAULT_VEHTYPE" speedFactor="1.18" vaporized=""/>
    <tripinfo id="f_0_5.2" depart="11.00" departLane="D3D4_0" departPos="5.10" departSpeed="0.00" departDelay="0.00" arrival="134.00" arrivalLane="D5D6_0" arrivalPos="491.30" arrivalSpeed="14.29" duration="123.00" routeLength="1493.50" waitingTime="0.00" waitingCount="0" stopTime="0.00" timeLoss="23.17" rerouteNo="0" devices="tripinfo_f_0_5.2" vType="DEFAULT_VEHTYPE" speedFactor="1.08" vaporized=""/>
    <tripinfo id="f_0_12.1" depart="5.00" departLane="D4D3_0" departPos="5.10" departSpeed="0.00" departDelay="2.00" arrival="136.00" arrivalLane="D2D1_0" arrivalPos="491.30" arrivalSpeed="13.06" duration="131.00" routeLength="1493.50" waitingTime="0.00" waitingCount="0" stopTime="0.00" timeLoss="24.96" rerouteNo="0" devices="tripinfo_f_0_12.1" vType="DEFAULT_VEHTYPE" speedFactor="1.02" vaporized=""/>
    <tripinfo id="f_0_13.2" depart="7.00" departLane="D0D1_0" departPos="5.10" departSpeed="0.00" departDelay="2.00" arrival="136.00" arrivalLane="D2D3_0" arrivalPos="492.80" arrivalSpeed="13.15" duration="129.00" routeLength="1494.90" waitingTime="0.00" waitingCount="0" stopTime="0.00" timeLoss="17.68" rerouteNo="0" devices="tripinfo_f_0_13.2" vType="DEFAULT_VEHTYPE" speedFactor="0.97" vaporized=""/>
    <tripinfo id="f_0_5.3" depart="15.00" departLane="D3D4_0" departPos="5.10" departSpeed="0.00" departDelay="0.00" arrival="136.00" arrivalLane="D5D6_0" arrivalPos="491.30" arrivalSpeed="13.88" duration="121.00" routeLength="1493.50" waitingTime="0.00" waitingCount="0" stopTime="0.00" timeLoss="13.46" rerouteNo="0" devices="tripinfo_f_0_5.3" vType="DEFAULT_VEHTYPE" speedFactor="1.01" vaporized=""/>
    <tripinfo id="f_0_5.4" depart="23.00" departLane="D3D4_0" departPos="5.10" departSpeed="0.00" departDelay="0.00" arrival="137.00" arrivalLane="D5D6_0" arrivalPos="491.30" arrivalSpeed="15.63" duration="114.00" routeLength="1493.50" waitingTime="0.00" waitingCount="0" stopTime="0.00" timeLoss="20.59" rerouteNo="0" devices="tripinfo_f_0_5.4" vType="DEFAULT_VEHTYPE" speedFactor="1.15" vaporized=""/>
    <tripinfo id="f_0_12.2" depart="8.00" departLane="D4D3_0" departPos="5.10" departSpeed="0.00" departDelay="4.00" arrival="138.00" arrivalLane="D2D1_0" arrivalPos="491.30" arrivalSpeed="12.60" duration="130.00" routeLength="1493.50" waitingTime="0.00" waitingCount="0" stopTime="0.00" timeLoss="14.00" rerouteNo="0" devices="tripinfo_f_0_12.2" vType="DEFAULT_VEHTYPE" speedFactor="0.93" vaporized=""/>
    <tripinfo id="f_0_13.3" depart="10.00" departLane="D0D1_0" departPos="5.10" departSpeed="0.00" departDelay="4.00" arrival="138.00" arrivalLane="D2D3_0" arrivalPos="492.80" arrivalSpeed="11.46" duration="128.00" routeLength="1494.90" waitingTime="0.00" waitingCount="0" stopTime="0.00" timeLoss="8.42" rerouteNo="0" devices="tripinfo_f_0_13.3" vType="DEFAULT_VEHTYPE" speedFactor="0.90" vaporized=""/>
    <tripinfo id="f_0_15.1" depart="3.00" departLane="E0E1_0" departPos="5.10" departSpeed="0.00" departDelay="2.00" arrival="139.00" arrivalLane="E2E3_0" arrivalPos="492.80" arrivalSpeed="11.57" duration="136.00" routeLength="1494.90" waitingTime="0.00" waitingCount="0" stopTime="0.00" timeLoss="10.01" rerouteNo="0" devices="tripinfo_f_0_15.1" vType="DEFAULT_VEHTYPE" speedFactor="0.86" vaporized=""/>
    <tripinfo id="f_0_12.3" depart="11.00" departLane="D4D3_0" departPos="5.10" departSpeed="0.00" departDelay="6.00" arrival="140.00" arrivalLane="D2D1_0" arrivalPos="491.30" arrivalSpeed="13.83" duration="129.00" routeLength="1493.50" waitingTime="0.00" waitingCount="0" stopTime="0.00" timeLoss="22.70" rerouteNo="0" devices="tripinfo_f_0_12.3" vType="DEFAULT_VEHTYPE" speedFactor="1.02" vaporized=""/>
    <tripinfo id="f_0_6.1" depart="14.00" departLane="E7E6_0" departPos="5.10" departSpeed="0.00" departDelay="0.00" arrival="140.00" arrivalLane="E5E4_0" arrivalPos="492.80" arrivalSpeed="13.54" duration="126.00" routeLength="1494.90" waitingTime="7.00" waitingCount="1" stopTime="0.00" timeLoss="21.80" rerouteNo="0" devices="tripinfo_f_0_6.1" vType="DEFAULT_VEHTYPE" speedFactor="1.03" vaporized=""/>
    <tripinfo id="f_0_5.5" depart="26.00" departLane="D3D4_0" departPos="5.10" departSpeed="0.00" departDelay="1.00" arrival="140.00" arrivalLane="D5D6_0" arrivalPos="491.30" arrivalSpeed="12.91" duration="114.00" routeLength="1493.50" waitingTime="0.00" waitingCount="0" stopTime="0.00" timeLoss="7.73" rerouteNo="0" devices="tripinfo_f_0_5.5" vType="DEFAULT_VEHTYPE" speedFactor="1.02" vaporized=""/>
    <tripinfo id="f_0_4.0" depart="1.00" departLane="D7D6_0" departPos="5.10" departSpeed="0.00" departDelay="0.00" arrival="141.00" arrivalLane="D5D4_0" arrivalPos="492.80" arrivalSpeed="10.94" duration="140.00" routeLength="1494.90" waitingTime="0.00" waitingCount="0" stopTime="0.00" timeLoss="9.96" rerouteNo="0" devices="tripinfo_f_0_4.0" vType="DEFAULT_VEHTYPE" speedFactor="0.83" vaporized=""/>
    <tripinfo id="f_0_15.2" depart="6.00" departLane="E0E1_0" departPos="5.10" departSpeed="0.00" departDelay="3.00" arrival="141.00" arrivalLane="E2E3_0" arrivalPos="492.80" arrivalSpeed="12.83" duration="135.00" routeLength="1494.90" waitingTime="0.00" waitingCount="0" stopTime="0.00" timeLoss="23.84" rerouteNo="0" devices="tripinfo_f_0_15.2" vType="DEFAULT_VEHTYPE" speedFactor="0.97" vaporized=""/>
    <tripinfo id="f_0_12.4" depart="14.00" departLane="D4D3_0" departPos="5.10" departSpeed="0.00" departDelay="5.00" arrival="141.00" arrivalLane="D2D1_0" arrivalPos="491.30" arrivalSpeed="14.95" duration="127.00" routeLength="1493.50" waitingTime="0.00" waitingCount="0" stopTime="0.00" timeLoss="34.74" rerouteNo="0" devices="tripinfo_f_0_12.4" vType="DEFAULT_VEHTYPE" speedFactor="1.17" vaporized=""/>
    <tripinfo id="f_0_7.2" depart="16.00" departLane="E3E4_0" departPos="5.10" departSpeed="0.00" departDelay="0.00" arrival="141.00" arrivalLane="E5E6_0" arrivalPos="491.30" arrivalSpeed="13.64" duration="125.00" routeLength="1493.50" waitingTime="6.00" waitingCount="1" stopTime="0.00" timeLoss="19.14" rerouteNo="0" devices="tripinfo_f_0_7.2" vType="DEFAULT_VEHTYPE" speedFactor="1.02" vaporized=""/>
    <tripinfo id="f_0_15.3" depart="9.00" departLane="E0E1_0" departPos="5.10" departSpeed="0.00" departDelay="5.00" arrival="142.00" arrivalLane="E2E3_0" arrivalPos="492.80" arrivalSpeed="15.25" duration="133.00" routeLength="1494.90" waitingTime="0.00" waitingCount="0" stopTime="0.00" timeLoss="39.50" rerouteNo="0" devices="tripinfo_f_0_15.3" vType="DEFAULT_VEHTYPE" speedFactor="1.15" vaporized=""/>
    <tripinfo id="f_0_6.2" depart="21.00" departLane="E7E6_0" departPos="5.10" departSpeed="0.00" departDelay="0.00" arrival="142.00" arrivalLane="E5E4_0" arrivalPos="492.80" arrivalSpeed="14.17" duration="121.00" routeLength="1494.90" waitingTime="7.00" waitingCount="1" stopTime="0.00" timeLoss="22.33" rerouteNo="0" devices="tripinfo_f_0_6.2" vType="DEFAULT_VEHTYPE" speedFactor="1.10" vaporized=""/>
    <tripinfo id="f_0_5.6" depart="29.00" departLane="D3D4_0" departPos="5.10" departSpeed="0.00" departDelay="1.00" arrival="142.00" arrivalLane="D5D6_0" arrivalPos="491.30" arrivalSpeed="13.76" duration="113.00" routeLength="1493.50" waitingTime="0.00" waitingCount="0" stopTime="0.00" timeLoss="8.92" rerouteNo="0" devices="tripinfo_f_0_5.6" vType="DEFAULT_VEHTYPE" speedFactor="1.04" vaporized=""/>
    <tripinfo id="f_0_4.1" depart="4.00" departLane="D7D6_0" departPos="5.10" departSpeed="0.00" departDelay="0.00" arrival="143.00" arrivalLane="D5D4_0" arrivalPos="492.80" arrivalSpeed="11.33" duration="139.00" routeLength="1494.90" waitingTime="0.00" waitingCount="0" stopTime="0.00" timeLoss="14.97" rerouteNo="0" devices="tripinfo_f_0_4.1" vType="DEFAULT_VEHTYPE" speedFactor="0.87" vaporized=""/>
    <tripinfo id="f_0_12.5" depart="17.00" departLane="D4D3_0" departPos="5.10" departSpeed="0.00" departDelay="7.00" arrival="143.00" arrivalLane="D2D1_0" arrivalPos="491.30" arrivalSpeed="12.77" duration="126.00" routeLength="1493.50" waitingTime="0.00" waitingCount="0" stopTime="0.00" timeLoss="17.74" rerouteNo="0" devices="tripinfo_f_0_12.5" vType="DEFAULT_VEHTYPE" speedFactor="1.00" vaporized=""/>
    <tripinfo id="f_0_5.7" depart="32.00" departLane="D3D4_0" departPos="5.10" departSpeed="0.00" departDelay="2.00" arrival="143.00" arrivalLane="D5D6_0" arrivalPos="491.30" arrivalSpeed="14.58" duration="111.00" routeLength="1493.50" waitingTime="0.00" waitingCount="0" stopTime="0.00" timeLoss="11.24" rerouteNo="0" devices="tripinfo_f_0_5.7" vType="DEFAULT_VEHTYPE" speedFactor="1.08" vaporized=""/>
    <tripinfo id="f_0_10.3" depart="9.00" departLane="C4C3_0" departPos="5.10" departSpeed="0.00" departDelay="5.00" arrival="144.00" arrivalLane="C2C1_0" arrivalPos="491.30" arrivalSpeed="12.23" duration="135.00" routeLength="1493.50" waitingTime="6.00" waitingCount="1" stopTime="0.00" timeLoss="21.04" rerouteNo="0" devices="tripinfo_f_0_10.3" vType="DEFAULT_VEHTYPE" speedFactor="0.95" vaporized=""/>
    <tripinfo id="f_0_6.3" depart="24.00" departLane="E7E6_0" departPos="5.10" departSpeed="0.00" departDelay="1.00" arrival="144.00" arrivalLane="E5E4_0" arrivalPos="492.80" arrivalSpeed="13.50" duration="120.00" routeLength="1494.90" waitingTime="0.00" waitingCount="0" stopTime="0.00" timeLoss="15.53" rerouteNo="0" devices="tripinfo_f_0_6.3" vType="DEFAULT_VEHTYPE" speedFactor="1.03" vaporized=""/>
    <tripinfo id="f_0_11.1" depart="4.00" departLane="C0C1_0" departPos="5.10" departSpeed="0.00" departDelay="2.00" arrival="145.00" arrivalLane="C2C3_0" arrivalPos="492.80" arrivalSpeed="12.04" duration="141.00" routeLength="1494.90" waitingTime="11.00" waitingCount="1" stopTime="0.00" timeLoss="24.65" rerouteNo="0" devices="tripinfo_f_0_11.1" vType="DEFAULT_VEHTYPE" speedFactor="0.93" vaporized=""/>
    <tripinfo id="f_0_15.4" depart="12.00" departLane="E0E1_0" departPos="5.10" departSpeed="0.00" departDelay="4.00" arrival="145.00" arrivalLane="E2E3_0" arrivalPos="492.80" arrivalSpeed="11.78" duration="133.00" routeLength="1494.90" waitingTime="0.00" waitingCount="0" stopTime="0.00" timeLoss="9.77" rerouteNo="0" devices="tripinfo_f_0_15.4" vType="DEFAULT_VEHTYPE" speedFactor="0.88" vaporized=""/>
    <tripinfo id="f_0_14.5" depart="16.00" departLane="E4E3_0" departPos="5.10" departSpeed="0.00" departDelay="6.00" arrival="145.00" arrivalLane="E2E1_0" arrivalPos="491.30" arrivalSpeed="11.85" duration="129.00" routeLength="1493.50" waitingTime="0.00" waitingCount="0" stopTime="0.00" timeLoss="9.02" rerouteNo="0" devices="tripinfo_f_0_14.5" vType="DEFAULT_VEHTYPE" speedFactor="0.90" vaporized=""/>
    <tripinfo id="f_0_13.4" depart="13.00" departLane="D0D1_0" departPos="5.10" departSpeed="0.00" departDelay="2.00" arrival="145.00" arrivalLane="D2D3_0" arrivalPos="492.80" arrivalSpeed="11.54" duration="132.00" routeLength="1494.90" waitingTime="0.00" waitingCount="0" stopTime="0.00" timeLoss="9.43" rerouteNo="0" devices="tripinfo_f_0_13.4" vType="DEFAULT_VEHTYPE" speedFactor="0.88" vaporized=""/>
    <tripinfo id="f_0_12.6" depart="20.00" departLane="D4D3_0" departPos="5.10" departSpeed="0.00" departDelay="3.00" arrival="145.00" arrivalLane="D2D1_0" arrivalPos="491.30" arrivalSpeed="13.45" duration="125.00" routeLength="1493.50" waitingTime="0.00" waitingCount="0" stopTime="0.00" timeLoss="17.88" rerouteNo="0" devices="tripinfo_f_0_12.6" vType="DEFAULT_VEHTYPE" speedFactor="1.01" vaporized=""/>
    <tripinfo id="f_0_7.3" depart="19.00" departLane="E3E4_0" departPos="5.10" departSpeed="0.00" departDelay="0.00" arrival="145.00" arrivalLane="E5E6_0" arrivalPos="491.30" arrivalSpeed="13.42" duration="126.00" routeLength="1493.50" waitingTime="0.00" waitingCount="0" stopTime="0.00" timeLoss="14.21" rerouteNo="0" devices="tripinfo_f_0_7.3" vType="DEFAULT_VEHTYPE" speedFactor="0.97" vaporized=""/>
    <tripinfo id="f_0_10.4" depart="12.00" departLane="C4C3_0" departPos="5.10" departSpeed="0.00" departDelay="7.00" arrival="146.00" arrivalLane="C2C1_0" arrivalPos="491.30" arrivalSpeed="13.43" duration="134.00" routeLength="1493.50" waitingTime="5.00" waitingCount="1" stopTime="0.00" timeLoss="24.95" rerouteNo="0" devices="tripinfo_f_0_10.4" vType="DEFAULT_VEHTYPE" speedFactor="0.99" vaporized=""/>
    <tripinfo id="f_0_4.2" depart="9.00" departLane="D7D6_0" departPos="5.10" departSpeed="0.00" departDelay="0.00" arrival="146.00" arrivalLane="D5D4_0" arrivalPos="492.80" arrivalSpeed="11.11" duration="137.00" routeLength="1494.90" waitingTime="0.00" waitingCount="0" stopTime="0.00" timeLoss="10.19" rerouteNo="0" devices="tripinfo_f_0_4.2" vType="DEFAULT_VEHTYPE" speedFactor="0.85" vaporized=""/>
    <tripinfo id="f_0_12.7" depart="23.00" departLane="D4D3_0" departPos="5.10" departSpeed="0.00" departDelay="4.00" arrival="146.00" arrivalLane="D2D1_0" arrivalPos="491.30" arrivalSpeed="14.03" duration="123.00" routeLength="1493.50" waitingTime="0.00" waitingCount="0" stopTime="0.00" timeLoss="22.73" rerouteNo="0" devices="tripinfo_f_0_12.7" vType="DEFAULT_VEHTYPE" speedFactor="1.07" vaporized=""/>
    <tripinfo id="f_0_6.4" depart="27.00" departLane="E7E6_0" departPos="5.10" departSpeed="0.00" departDelay="3.00" arrival="146.00" arrivalLane="E5E4_0" arrivalPos="492.80" arrivalSpeed="13.98" duration="119.00" routeLength="1494.90" waitingTime="0.00" waitingCount="0" stopTime="0.00" timeLoss="14.26" rerouteNo="0" devices="tripinfo_f_0_6.4" vType="DEFAULT_VEHTYPE" speedFactor="1.03" vaporized=""/>
    <tripinfo id="f_0_11.2" depart="7.00" departLane="C0C1_0" departPos="5.10" departSpeed="0.00" departDelay="3.00" arrival="147.00" arrivalLane="C2C3_0" arrivalPos="492.80" arrivalSpeed="14.82" duration="140.00" routeLength="1494.90" waitingTime="9.00" waitingCount="1" stopTime="0.00" timeLoss="44.29" rerouteNo="0" devices="tripinfo_f_0_11.2" vType="DEFAULT_VEHTYPE" speedFactor="1.13" vaporized=""/>
    <tripinfo id="f_0_10.5" depart="15.00" departLane="C4C3_0" departPos="5.10" departSpeed="0.00" departDelay="8.00" arrival="147.00" arrivalLane="C2C1_0" arrivalPos="491.30" arrivalSpeed="14.39" duration="132.00" routeLength="1493.50" waitingTime="5.00" waitingCount="1" stopTime="0.00" timeLoss="28.66" rerouteNo="0" devices="tripinfo_f_0_10.5" vType="DEFAULT_VEHTYPE" speedFactor="1.04" vaporized=""/>
    <tripinfo id="f_0_14.6" depart="19.00" departLane="E4E3_0" departPos="5.10" departSpeed="0.00" departDelay="8.00" arrival="147.00" arrivalLane="E2E1_0" arrivalPos="491.30" arrivalSpeed="12.39" duration="128.00" routeLength="1493.50" waitingTime="0.00" waitingCount="0" stopTime="0.00" timeLoss="8.91" rerouteNo="0" devices="tripinfo_f_0_14.6" vType="DEFAULT_VEHTYPE" speedFactor="0.91" vaporized=""/>
    <tripinfo id="f_0_15.5" depart="15.00" departLane="E0E1_0" departPos="5.10" departSpeed="0.00" departDelay="3.00" arrival="147.00" arrivalLane="E2E3_0" arrivalPos="492.80" arrivalSpeed="12.48" duration="132.00" routeLength="1494.90" waitingTime="0.00" waitingCount="0" stopTime="0.00" timeLoss="20.70" rerouteNo="0" devices="tripinfo_f_0_15.5" vType="DEFAULT_VEHTYPE" speedFactor="0.97" vaporized=""/>
    <tripinfo id="f_0_13.5" depart="16.00" departLane="D0D1_0" departPos="5.10" departSpeed="0.00" departDelay="3.00" arrival="147.00" arrivalLane="D2D3_0" arrivalPos="492.80" arrivalSpeed="13.00" duration="131.00" routeLength="1494.90" waitingTime="0.00" waitingCount="0" stopTime="0.00" timeLoss="23.23" rerouteNo="0" devices="tripinfo_f_0_13.5" vType="DEFAULT_VEHTYPE" speedFactor="1.01" vaporized=""/>
    <tripinfo id="f_0_11.3" depart="10.00" departLane="C0C1_0" departPos="5.10" departSpeed="0.00" departDelay="4.00" arrival="148.00" arrivalLane="C2C3_0" arrivalPos="492.80" arrivalSpeed="15.23" duration="138.00" routeLength="1494.90" waitingTime="9.00" waitingCount="1" stopTime="0.00" timeLoss="40.26" rerouteNo="0" devices="tripinfo_f_0_11.3" vType="DEFAULT_VEHTYPE" speedFactor="1.10" vaporized=""/>
    <tripinfo id="f_0_15.6" depart="18.00" departLane="E0E1_0" departPos="5.10" departSpeed="0.00" departDelay="5.00" arrival="148.00" arrivalLane="E2E3_0" arrivalPos="492.80" arrivalSpeed="14.24" duration="130.00" routeLength="1494.90" waitingTime="0.00" waitingCount="0" stopTime="0.00" timeLoss="30.90" rerouteNo="0" devices="tripinfo_f_0_15.6" vType="DEFAULT_VEHTYPE" speedFactor="1.09" vaporized=""/>
    <tripinfo id="f_0_13.6" depart="19.00" departLane="D0D1_0" departPos="5.10" departSpeed="0.00" departDelay="5.00" arrival="148.00" arrivalLane="D2D3_0" arrivalPos="492.80" arrivalSpeed="13.58" duration="129.00" routeLength="1494.90" waitingTime="0.00" waitingCount="0" stopTime="0.00" timeLoss="23.01" rerouteNo="0" devices="tripinfo_f_0_13.6" vType="DEFAULT_VEHTYPE" speedFactor="1.02" vaporized=""/>
    <tripinfo id="f_0_4.3" depart="15.00" departLane="D7D6_0" departPos="5.10" departSpeed="0.00" departDelay="0.00" arrival="148.00" arrivalLane="D5D4_0" arrivalPos="492.80" arrivalSpeed="13.34" duration="133.00" routeLength="1494.90" waitingTime="0.00" waitingCount="0" stopTime="0.00" timeLoss="29.19" rerouteNo="0" devices="tripinfo_f_0_4.3" vType="DEFAULT_VEHTYPE" speedFactor="1.04" vaporized=""/>
    <tripinfo id="f_0_12.8" depart="26.00" departLane="D4D3_0" departPos="5.10" departSpeed="0.00" departDelay="6.00" arrival="148.00" arrivalLane="D2D1_0" arrivalPos="491.30" arrivalSpeed="13.02" duration="122.00" routeLength="1493.50" waitingTime="0.00" waitingCount="0" stopTime="0.00" timeLoss="9.94" rerouteNo="0" devices="tripinfo_f_0_12.8" vType="DEFAULT_VEHTYPE" speedFactor="0.96" vaporized=""/>
    <tripinfo id="f_0_10.6" depart="18.00" departLane="C4C3_0" departPos="5.10" departSpeed="0.00" departDelay="8.00" arrival="149.00" arrivalLane="C2C1_0" arrivalPos="491.30" arrivalSpeed="15.01" duration="131.00" routeLength="1493.50" waitingTime="5.00" waitingCount="1" stopTime="0.00" timeLoss="32.15" rerouteNo="0" devices="tripinfo_f_0_10.6" vType="DEFAULT_VEHTYPE" speedFactor="1.10" vaporized=""/>
    <tripinfo id="f_0_14.7" depart="22.00" departLane="E4E3_0" departPos="5.10" departSpeed="0.00" departDelay="3.00" arrival="149.00" arrivalLane="E2E1_0" arrivalPos="491.30" arrivalSpeed="13.57" duration="127.00" routeLength="1493.50" waitingTime="0.00" waitingCount="0" stopTime="0.00" timeLoss="22.26" rerouteNo="0" devices="tripinfo_f_0_14.7" vType="DEFAULT_VEHTYPE" speedFactor="1.03" vaporized=""/>
    <tripinfo id="f_0_11.4" depart="13.00" departLane="C0C1_0" departPos="5.10" departSpeed="0.00" departDelay="3.00" arrival="150.00" arrivalLane="C2C3_0" arrivalPos="492.80" arrivalSpeed="13.77" duration="137.00" routeLength="1494.90" waitingTime="9.00" waitingCount="1" stopTime="0.00" timeLoss="29.46" rerouteNo="0" devices="tripinfo_f_0_11.4" vType="DEFAULT_VEHTYPE" speedFactor="1.00" vaporized=""/>
    <tripinfo id="f_0_15.7" depart="21.00" departLane="E0E1_0" departPos="5.10" departSpeed="0.00" departDelay="7.00" arrival="150.00" arrivalLane="E2E3_0" arrivalPos="492.80" arrivalSpeed="12.33" duration="129.00" routeLength="1494.90" waitingTime="0.00" waitingCount="0" stopTime="0.00" timeLoss="17.52" rerouteNo="0" devices="tripinfo_f_0_15.7" vType="DEFAULT_VEHTYPE" speedFactor="0.97" vaporized=""/>
    <tripinfo id="f_0_4.4" depart="19.00" departLane="D7D6_0" departPos="5.10" departSpeed="0.00" departDelay="0.00" arrival="150.00" arrivalLane="D5D4_0" arrivalPos="492.80" arrivalSpeed="12.82" duration="131.00" routeLength="1494.90" waitingTime="0.00" waitingCount="0" stopTime="0.00" timeLoss="17.78" rerouteNo="0" devices="tripinfo_f_0_4.4" vType="DEFAULT_VEHTYPE" speedFactor="0.96" vaporized=""/>
    <tripinfo id="f_0_13.7" depart="22.00" departLane="D0D1_0" departPos="5.10" departSpeed="0.00" departDelay="3.00" arrival="150.00" arrivalLane="D2D3_0" arrivalPos="492.80" arrivalSpeed="12.86" duration="128.00" routeLength="1494.90" waitingTime="0.00" waitingCount="0" stopTime="0.00" timeLoss="21.56" rerouteNo="0" devices="tripinfo_f_0_13.7" vType="DEFAULT_VEHTYPE" speedFactor="1.01" vaporized=""/>
    <tripinfo id="f_0_12.9" depart="29.00" departLane="D4D3_0" departPos="5.10" departSpeed="0.00" departDelay="5.00" arrival="150.00" arrivalLane="D2D1_0" arrivalPos="491.30" arrivalSpeed="13.36" duration="121.00" routeLength="1493.50" waitingTime="0.00" waitingCount="0" stopTime="0.00" timeLoss="17.09" rerouteNo="0" devices="tripinfo_f_0_12.9" vType="DEFAULT_VEHTYPE" speedFactor="1.04" vaporized=""/>
    <tripinfo id="f_0_10.7" depart="21.00" departLane="C4C3_0" departPos="5.10" departSpeed="0.00" departDelay="10.00" arrival="151.00" arrivalLane="C2C1_0" arrivalPos="491.30" arrivalSpeed="13.06" duration="130.00" routeLength="1493.50" waitingTime="4.00" waitingCount="1" stopTime="0.00" timeLoss="20.43" rerouteNo="0" devices="tripinfo_f_0_10.7" vType="DEFAULT_VEHTYPE" speedFactor="0.99" vaporized=""/>