<?xml version="1.0" encoding="UTF-8"?>

<!-- generated on 2024-07-18 15:38:07 by Eclipse SUMO sumo Version 1.17.0
<configuration xmlns:xsi="http://www.w3.org/2001/XMLSchema-instance" xsi:noNamespaceSchemaLocation="http://sumo.dlr.de/xsd/sumoConfiguration.xsd">

    <input>
        <net-file value="triple_no_lights.net.xml"/>
        <route-files value="triple_2.rou.xml"/>
    </input>

    <output>
        <summary-output value="control_summaries//summary_triple_no_lights_2.xml"/>
        <tripinfo-output value="control_summaries//tripinfos_triple_no_lights_2.xml"/>
    </output>

    <processing>
        <time-to-teleport value="-1"/>
    </processing>

    <traci_server>
        <remote-port value="55513"/>
    </traci_server>

</configuration>
-->

<tripinfos xmlns:xsi="http://www.w3.org/2001/XMLSchema-instance" xsi:noNamespaceSchemaLocation="http://sumo.dlr.de/xsd/tripinfo_file.xsd">
    <tripinfo id="f_0_7.0" depart="2.00" departLane="E3E4_0" departPos="5.10" departSpeed="0.00" departDelay="0.00" arrival="106.00" arrivalLane="E5E6_0" arrivalPos="491.30" arrivalSpeed="15.05" duration="104.00" routeLength="1493.50" waitingTime="0.00" waitingCount="0" stopTime="0.00" timeLoss="7.83" rerouteNo="0" devices="tripinfo_f_0_7.0" vType="DEFAULT_VEHTYPE" speedFactor="1.12" vaporized=""/>
    <tripinfo id="f_0_15.0" depart="0.00" departLane="E0E1_0" departPos="5.10" departSpeed="0.00" departDelay="0.00" arrival="108.00" arrivalLane="E2E3_0" arrivalPos="492.80" arrivalSpeed="13.76" duration="108.00" routeLength="1494.90" waitingTime="0.00" waitingCount="0" stopTime="0.00" timeLoss="8.40" rerouteNo="0" devices="tripinfo_f_0_15.0" vType="DEFAULT_VEHTYPE" speedFactor="1.08" vaporized=""/>
    <tripinfo id="f_0_2.0" depart="0.00" departLane="C7C6_0" departPos="5.10" departSpeed="0.00" departDelay="0.00" arrival="110.00" arrivalLane="C5C4_0" arrivalPos="492.80" arrivalSpeed="13.49" duration="110.00" routeLength="1494.90" waitingTime="0.00" waitingCount="0" stopTime="0.00" timeLoss="8.36" rerouteNo="0" devices="tripinfo_f_0_2.0" vType="DEFAULT_VEHTYPE" speedFactor="1.06" vaporized=""/>
    <tripinfo id="f_0_11.0" depart="1.00" departLane="C0C1_0" departPos="5.10" departSpeed="0.00" departDelay="0.00" arrival="113.00" arrivalLane="C2C3_0" arrivalPos="492.80" arrivalSpeed="14.10" duration="112.00" routeLength="1494.90" waitingTime="0.00" waitingCount="0" stopTime="0.00" timeLoss="8.15" rerouteNo="0" devices="tripinfo_f_0_11.0" vType="DEFAULT_VEHTYPE" speedFactor="1.05" vaporized=""/>
    <tripinfo id="f_0_6.0" depart="2.00" departLane="E7E6_0" departPos="5.10" departSpeed="0.00" departDelay="0.00" arrival="113.00" arrivalLane="E5E4_0" arrivalPos="492.80" arrivalSpeed="13.49" duration="111.00" routeLength="1494.90" waitingTime="0.00" waitingCount="0" stopTime="0.00" timeLoss="7.61" rerouteNo="0" devices="tripinfo_f_0_6.0" vType="DEFAULT_VEHTYPE" speedFactor="1.05" vaporized=""/>
    <tripinfo id="f_0_7.1" depart="11.00" departLane="E3E4_0" departPos="5.10" departSpeed="0.00" departDelay="0.00" arrival="113.00" arrivalLane="E5E6_0" arrivalPos="491.30" arrivalSpeed="15.23" duration="102.00" routeLength="1493.50" waitingTime="0.00" waitingCount="0" stopTime="0.00" timeLoss="7.63" rerouteNo="0" devices="tripinfo_f_0_7.1" vType="DEFAULT_VEHTYPE" speedFactor="1.14" vaporized=""/>
    <tripinfo id="f_0_10.0" depart="0.00" departLane="C4C3_0" departPos="5.10" departSpeed="0.00" departDelay="0.00" arrival="114.00" arrivalLane="C2C1_0" arrivalPos="491.30" arrivalSpeed="12.76" duration="114.00" routeLength="1493.50" waitingTime="0.00" waitingCount="0" stopTime="0.00" timeLoss="7.20" rerouteNo="0" devices="tripinfo_f_0_10.0" vType="DEFAULT_VEHTYPE" speedFactor="1.01" vaporized=""/>
    <tripinfo id="f_0_3.0" depart="2.00" departLane="C3C4_0" departPos="5.10" departSpeed="0.00" departDelay="0.00" arrival="115.00" arrivalLane="C5C6_0" arrivalPos="491.30" arrivalSpeed="14.09" duration="113.00" routeLength="1493.50" waitingTime="0.00" waitingCount="0" stopTime="0.00" timeLoss="7.36" rerouteNo="0" devices="tripinfo_f_0_3.0" vType="DEFAULT_VEHTYPE" speedFactor="1.03" vaporized=""/>
    <tripinfo id="f_0_10.1" depart="2.00" departLane="C4C3_0" departPos="5.10" departSpeed="0.00" departDelay="0.00" arrival="120.00" arrivalLane="C2C1_0" arrivalPos="491.30" arrivalSpeed="12.75" duration="118.00" routeLength="1493.50" waitingTime="0.00" waitingCount="0" stopTime="0.00" timeLoss="8.92" rerouteNo="0" devices="tripinfo_f_0_10.1" vType="DEFAULT_VEHTYPE" speedFactor="0.99" vaporized=""/>
    <tripinfo id="f_0_10.2" depart="6.00" departLane="C4C3_0" departPos="5.10" departSpeed="0.00" departDelay="3.00" arrival="121.00" arrivalLane="C2C1_0" arrivalPos="491.30" arrivalSpeed="14.09" duration="115.00" routeLength="1493.50" waitingTime="0.00" waitingCount="0" stopTime="0.00" timeLoss="22.08" rerouteNo="0" devices="tripinfo_f_0_10.2" vType="DEFAULT_VEHTYPE" speedFactor="1.16" vaporized=""/>
    <tripinfo id="f_0_5.0" depart="0.00" departLane="D3D4_0" departPos="5.10" departSpeed="0.00" departDelay="0.00" arrival="124.00" arrivalLane="D5D6_0" arrivalPos="491.30" arrivalSpeed="12.39" duration="124.00" routeLength="1493.50" waitingTime="0.00" waitingCount="0" stopTime="0.00" timeLoss="8.58" rerouteNo="0" devices="tripinfo_f_0_5.0" vType="DEFAULT_VEHTYPE" speedFactor="0.94" vaporized=""/>
    <tripinfo id="f_0_14.0" depart="1.00" departLane="E4E3_0" departPos="5.10" departSpeed="0.00" departDelay="0.00" arrival="124.00" arrivalLane="E2E1_0" arrivalPos="491.30" arrivalSpeed="12.99" duration="123.00" routeLength="1493.50" waitingTime="0.00" waitingCount="0" stopTime="0.00" timeLoss="8.21" rerouteNo="0" devices="tripinfo_f_0_14.0" vType="DEFAULT_VEHTYPE" speedFactor="0.94" vaporized=""/>
    <tripinfo id="f_0_14.1" depart="4.00" departLane="E4E3_0" departPos="5.10" departSpeed="0.00" departDelay="2.00" arrival="127.00" arrivalLane="E2E1_0" arrivalPos="491.30" arrivalSpeed="12.54" duration="123.00" routeLength="1493.50" waitingTime="0.00" waitingCount="0" stopTime="0.00" timeLoss="8.09" rerouteNo="0" devices="tripinfo_f_0_14.1" vType="DEFAULT_VEHTYPE" speedFactor="0.94" vaporized=""/>
    <tripinfo id="f_0_14.2" depart="7.00" departLane="E4E3_0" departPos="5.10" departSpeed="0.00" departDelay="4.00" arrival="128.00" arrivalLane="E2E1_0" arrivalPos="491.30" arrivalSpeed="13.51" duration="121.00" routeLength="1493.50" waitingTime="0.00" waitingCount="0" stopTime="0.00" timeLoss="14.47" rerouteNo="0" devices="tripinfo_f_0_14.2" vType="DEFAULT_VEHTYPE" speedFactor="1.01" vaporized=""/>
    <tripinfo id="f_0_5.1" depart="7.00" departLane="D3D4_0" departPos="5.10" departSpeed="0.00" departDelay="0.00" arrival="128.00" arrivalLane="D5D6_0" arrivalPos="491.30" arrivalSpeed="13.24" duration="121.00" routeLength="1493.50" waitingTime="0.00" waitingCount="0" stopTime="0.00" timeLoss="8.61" rerouteNo="0" devices="tripinfo_f_0_5.1" vType="DEFAULT_VEHTYPE" speedFactor="0.96" vaporized=""/>
    <tripinfo id="f_0_7.2" depart="19.00" departLane="E3E4_0" departPos="5.10" departSpeed="0.00" departDelay="0.00" arrival="129.00" arrivalLane="E5E6_0" arrivalPos="491.30" arrivalSpeed="13.78" duration="110.00" routeLength="1493.50" waitingTime="0.00" waitingCount="0" stopTime="0.00" timeLoss="7.55" rerouteNo="0" devices="tripinfo_f_0_7.2" vType="DEFAULT_VEHTYPE" speedFactor="1.06" vaporized=""/>
    <tripinfo id="f_0_11.1" depart="4.00" departLane="C0C1_0" departPos="5.10" departSpeed="0.00" departDelay="2.00" arrival="130.00" arrivalLane="C2C3_0" arrivalPos="492.80" arrivalSpeed="12.34" duration="126.00" routeLength="1494.90" waitingTime="0.00" waitingCount="0" stopTime="0.00" timeLoss="9.40" rerouteNo="0" devices="tripinfo_f_0_11.1" vType="DEFAULT_VEHTYPE" speedFactor="0.93" vaporized=""/>
    <tripinfo id="f_0_14.3" depart="10.00" departLane="E4E3_0" departPos="5.10" departSpeed="0.00" departDelay="5.00" arrival="130.00" arrivalLane="E2E1_0" arrivalPos="491.30" arrivalSpeed="12.31" duration="120.00" routeLength="1493.50" waitingTime="0.00" waitingCount="0" stopTime="0.00" timeLoss="9.29" rerouteNo="0" devices="tripinfo_f_0_14.3" vType="DEFAULT_VEHTYPE" speedFactor="0.97" vaporized=""/>
    <tripinfo id="f_0_13.0" depart="1.00" departLane="D0D1_0" departPos="5.10" departSpeed="0.00" departDelay="0.00" arrival="132.00" arrivalLane="D2D3_0" arrivalPos="492.80" arrivalSpeed="12.03" duration="131.00" routeLength="1494.90" waitingTime="0.00" waitingCount="0" stopTime="0.00" timeLoss="9.35" rerouteNo="0" devices="tripinfo_f_0_13.0" vType="DEFAULT_VEHTYPE" speedFactor="0.89" vaporized=""/>
    <tripinfo id="f_0_11.2" depart="7.00" departLane="C0C1_0" departPos="5.10" departSpeed="0.00" departDelay="3.00" arrival="132.00" arrivalLane="C2C3_0" arrivalPos="492.80" arrivalSpeed="12.27" duration="125.00" routeLength="1494.90" waitingTime="0.00" waitingCount="0" stopTime="0.00" timeLoss="10.93" rerouteNo="0" devices="tripinfo_f_0_11.2" vType="DEFAULT_VEHTYPE" speedFactor="0.95" vaporized=""/>
    <tripinfo id="f_0_14.4" depart="13.00" departLane="E4E3_0" departPos="5.10" departSpeed="0.00" departDelay="6.00" arrival="132.00" arrivalLane="E2E1_0" arrivalPos="491.30" arrivalSpeed="13.55" duration="119.00" routeLength="1493.50" waitingTime="0.00" waitingCount="0" stopTime="0.00" timeLoss="15.40" rerouteNo="0" devices="tripinfo_f_0_14.4" vType="DEFAULT_VEHTYPE" speedFactor="1.04" vaporized=""/>
    <tripinfo id="f_0_7.3" depart="23.00" departLane="E3E4_0" departPos="5.10" departSpeed="0.00" departDelay="0.00" arrival="132.00" arrivalLane="E5E6_0" arrivalPos="491.30" arrivalSpeed="13.60" duration="109.00" routeLength="1493.50" waitingTime="0.00" waitingCount="0" stopTime="0.00" timeLoss="7.72" rerouteNo="0" devices="tripinfo_f_0_7.3" vType="DEFAULT_VEHTYPE" speedFactor="1.07" vaporized=""/>
    <tripinfo id="f_0_11.3" depart="10.00" departLane="C0C1_0" departPos="5.10" departSpeed="0.00" departDelay="4.00" arrival="133.00" arrivalLane="C2C3_0" arrivalPos="492.80" arrivalSpeed="13.83" duration="123.00" routeLength="1494.90" waitingTime="0.00" waitingCount="0" stopTime="0.00" timeLoss="31.67" rerouteNo="0" devices="tripinfo_f_0_11.3" vType="DEFAULT_VEHTYPE" speedFactor="1.18" vaporized=""/>
    <tripinfo id="f_0_2.1" depart="17.00" departLane="C7C6_0" departPos="5.10" departSpeed="0.00" departDelay="0.00" arrival="133.00" arrivalLane="C5C4_0" arrivalPos="492.80" arrivalSpeed="12.83" duration="116.00" routeLength="1494.90" waitingTime="0.00" waitingCount="0" stopTime="0.00" timeLoss="7.88" rerouteNo="0" devices="tripinfo_f_0_2.1" vType="DEFAULT_VEHTYPE" speedFactor="1.00" vaporized=""/>
    <tripinfo id="f_0_6.1" depart="21.00" departLane="E7E6_0" departPos="5.10" departSpeed="0.00" departDelay="0.00" arrival="133.00" arrivalLane="E5E4_0" arrivalPos="492.80" arrivalSpeed="13.67" duration="112.00" routeLength="1494.90" waitingTime="0.00" waitingCount="0" stopTime="0.00" timeLoss="7.73" rerouteNo="0" devices="tripinfo_f_0_6.1" vType="DEFAULT_VEHTYPE" speedFactor="1.03" vaporized=""/>
    <tripinfo id="f_0_12.0" depart="2.00" departLane="D4D3_0" departPos="5.10" departSpeed="0.00" departDelay="0.00" arrival="134.00" arrivalLane="D2D1_0" arrivalPos="491.30" arrivalSpeed="12.06" duration="132.00" routeLength="1493.50" waitingTime="0.00" waitingCount="0" stopTime="0.00" timeLoss="9.17" rerouteNo="0" devices="tripinfo_f_0_12.0" vType="DEFAULT_VEHTYPE" speedFactor="0.88" vaporized=""/>
    <tripinfo id="f_0_13.1" depart="4.00" departLane="D0D1_0" departPos="5.10" departSpeed="0.00" departDelay="0.00" arrival="134.00" arrivalLane="D2D3_0" arrivalPos="492.80" arrivalSpeed="12.43" duration="130.00" routeLength="1494.90" waitingTime="0.00" waitingCount="0" stopTime="0.00" timeLoss="14.11" rerouteNo="0" devices="tripinfo_f_0_13.1" vType="DEFAULT_VEHTYPE" speedFactor="0.93" vaporized=""/>
    <tripinfo id="f_0_14.5" depart="16.00" departLane="E4E3_0" departPos="5.10" departSpeed="0.00" departDelay="6.00" arrival="134.00" arrivalLane="E2E1_0" arrivalPos="491.30" arrivalSpeed="14.04" duration="118.00" routeLength="1493.50" waitingTime="0.00" waitingCount="0" stopTime="0.00" timeLoss="19.01" rerouteNo="0" devices="tripinfo_f_0_14.5" vType="DEFAULT_VEHTYPE" speedFactor="1.10" vaporized=""/>
    <tripinfo id="f_0_2.2" depart="23.00" departLane="C7C6_0" departPos="5.10" departSpeed="0.00" departDelay="0.00" arrival="134.00" arrivalLane="C5C4_0" arrivalPos="492.80" arrivalSpeed="15.07" duration="111.00" routeLength="1494.90" waitingTime="0.00" waitingCount="0" stopTime="0.00" timeLoss="19.42" rerouteNo="0" devices="tripinfo_f_0_2.2" vType="DEFAULT_VEHTYPE" speedFactor="1.18" vaporized=""/>
    <tripinfo id="f_0_10.3" depart="9.00" departLane="C4C3_0" departPos="5.10" departSpeed="0.00" departDelay="5.00" arrival="135.00" arrivalLane="C2C1_0" arrivalPos="491.30" arrivalSpeed="12.20" duration="126.00" routeLength="1493.50" waitingTime="0.00" waitingCount="0" stopTime="0.00" timeLoss="8.65" rerouteNo="0" devices="tripinfo_f_0_10.3" vType="DEFAULT_VEHTYPE" speedFactor="0.92" vaporized=""/>
    <tripinfo id="f_0_11.4" depart="13.00" departLane="C0C1_0" departPos="5.10" departSpeed="0.00" departDelay="3.00" arrival="135.00" arrivalLane="C2C3_0" arrivalPos="492.80" arrivalSpeed="15.46" duration="122.00" routeLength="1494.90" waitingTime="0.00" waitingCount="0" stopTime="0.00" timeLoss="29.37" rerouteNo="0" devices="tripinfo_f_0_11.4" vType="DEFAULT_VEHTYPE" speedFactor="1.17" vaporized=""/>
    <tripinfo id="f_0_14.6" depart="19.00" departLane="E4E3_0" departPos="5.10" departSpeed="0.00" departDelay="8.00" arrival="135.00" arrivalLane="E2E1_0" arrivalPos="491.30" arrivalSpeed="13.12" duration="116.00" routeLength="1493.50" waitingTime="0.00" waitingCount="0" stopTime="0.00" timeLoss="10.03" rerouteNo="0" devices="tripinfo_f_0_14.6" vType="DEFAULT_VEHTYPE" speedFactor="1.02" vaporized=""/>
    <tripinfo id="f_0_7.4" depart="26.00" departLane="E3E4_0" departPos="5.10" departSpeed="0.00" departDelay="0.00" arrival="135.00" arrivalLane="E5E6_0" arrivalPos="491.30" arrivalSpeed="13.80" duration="109.00" routeLength="1493.50" waitingTime="0.00" waitingCount="0" stopTime="0.00" timeLoss="7.97" rerouteNo="0" devices="tripinfo_f_0_7.4" vType="DEFAULT_VEHTYPE" speedFactor="1.07" vaporized=""/>
    <tripinfo id="f_0_12.1" depart="5.00" departLane="D4D3_0" departPos="5.10" departSpeed="0.00" departDelay="2.00" arrival="136.00" arrivalLane="D2D1_0" arrivalPos="491.30" arrivalSpeed="14.03" duration="131.00" routeLength="1493.50" waitingTime="0.00" waitingCount="0" stopTime="0.00" timeLoss="24.51" rerouteNo="0" devices="tripinfo_f_0_12.1" vType="DEFAULT_VEHTYPE" speedFactor="1.02" vaporized=""/>
    <tripinfo id="f_0_13.2" depart="7.00" departLane="D0D1_0" departPos="5.10" departSpeed="0.00" departDelay="2.00" arrival="136.00" arrivalLane="D2D3_0" arrivalPos="492.80" arrivalSpeed="13.50" duration="129.00" routeLength="1494.90" waitingTime="0.00" waitingCount="0" stopTime="0.00" timeLoss="22.80" rerouteNo="0" devices="tripinfo_f_0_13.2" vType="DEFAULT_VEHTYPE" speedFactor="1.02" vaporized=""/>
    <tripinfo id="f_0_12.2" depart="8.00" departLane="D4D3_0" departPos="5.10" departSpeed="0.00" departDelay="4.00" arrival="137.00" arrivalLane="D2D1_0" arrivalPos="491.30" arrivalSpeed="15.06" duration="129.00" routeLength="1493.50" waitingTime="0.00" waitingCount="0" stopTime="0.00" timeLoss="33.73" rerouteNo="0" devices="tripinfo_f_0_12.2" vType="DEFAULT_VEHTYPE" speedFactor="1.13" vaporized=""/>
    <tripinfo id="f_0_10.4" depart="12.00" departLane="C4C3_0" departPos="5.10" departSpeed="0.00" departDelay="7.00" arrival="137.00" arrivalLane="C2C1_0" arrivalPos="491.30" arrivalSpeed="15.74" duration="125.00" routeLength="1493.50" waitingTime="0.00" waitingCount="0" stopTime="0.00" timeLoss="32.61" rerouteNo="0" devices="tripinfo_f_0_10.4" vType="DEFAULT_VEHTYPE" speedFactor="1.17" vaporized=""/>
    <tripinfo id="f_0_13.3" depart="10.00" departLane="D0D1_0" departPos="5.10" departSpeed="0.00" departDelay="4.00" arrival="137.00" arrivalLane="D2D3_0" arrivalPos="492.80" arrivalSpeed="14.39" duration="127.00" routeLength="1494.90" waitingTime="0.00" waitingCount="0" stopTime="0.00" timeLoss="29.27" rerouteNo="0" devices="tripinfo_f_0_13.3" vType="DEFAULT_VEHTYPE" speedFactor="1.10" vaporized=""/>
    <tripinfo id="f_0_11.5" depart="16.00" departLane="C0C1_0" departPos="5.10" departSpeed="0.00" departDelay="5.00" arrival="137.00" arrivalLane="C2C3_0" arrivalPos="492.80" arrivalSpeed="14.71" duration="121.00" routeLength="1494.90" waitingTime="0.00" waitingCount="0" stopTime="0.00" timeLoss="20.69" rerouteNo="0" devices="tripinfo_f_0_11.5" vType="DEFAULT_VEHTYPE" speedFactor="1.08" vaporized=""/>
    <tripinfo id="f_0_14.7" depart="22.00" departLane="E4E3_0" departPos="5.10" departSpeed="0.00" departDelay="3.00" arrival="137.00" arrivalLane="E2E1_0" arrivalPos="491.30" arrivalSpeed="14.37" duration="115.00" routeLength="1493.50" waitingTime="0.00" waitingCount="0" stopTime="0.00" timeLoss="13.51" rerouteNo="0" devices="tripinfo_f_0_14.7" vType="DEFAULT_VEHTYPE" speedFactor="1.06" vaporized=""/>
    <tripinfo id="f_0_15.1" depart="3.00" departLane="E0E1_0" departPos="5.10" departSpeed="0.00" departDelay="2.00" arrival="139.00" arrivalLane="E2E3_0" arrivalPos="492.80" arrivalSpeed="11.12" duration="136.00" routeLength="1494.90" waitingTime="0.00" waitingCount="0" stopTime="0.00" timeLoss="9.70" rerouteNo="0" devices="tripinfo_f_0_15.1" vType="DEFAULT_VEHTYPE" speedFactor="0.86" vaporized=""/>
    <tripinfo id="f_0_12.3" depart="11.00" departLane="D4D3_0" departPos="5.10" departSpeed="0.00" departDelay="6.00" arrival="139.00" arrivalLane="D2D1_0" arrivalPos="491.30" arrivalSpeed="12.84" duration="128.00" routeLength="1493.50" waitingTime="0.00" waitingCount="0" stopTime="0.00" timeLoss="19.60" rerouteNo="0" devices="tripinfo_f_0_12.3" vType="DEFAULT_VEHTYPE" speedFactor="0.99" vaporized=""/>
    <tripinfo id="f_0_10.5" depart="15.00" departLane="C4C3_0" departPos="5.10" departSpeed="0.00" departDelay="8.00" arrival="139.00" arrivalLane="C2C1_0" arrivalPos="491.30" arrivalSpeed="14.40" duration="124.00" routeLength="1493.50" waitingTime="0.00" waitingCount="0" stopTime="0.00" timeLoss="19.57" rerouteNo="0" devices="tripinfo_f_0_10.5" vType="DEFAULT_VEHTYPE" speedFactor="1.04" vaporized=""/>
    <tripinfo id="f_0_13.4" depart="13.00" departLane="D0D1_0" departPos="5.10" departSpeed="0.00" departDelay="2.00" arrival="139.00" arrivalLane="D2D3_0" arrivalPos="492.80" arrivalSpeed="15.34" duration="126.00" routeLength="1494.90" waitingTime="0.00" waitingCount="0" stopTime="0.00" timeLoss="29.37" rerouteNo="0" devices="tripinfo_f_0_13.4" vType="DEFAULT_VEHTYPE" speedFactor="1.12" vaporized=""/>
    <tripinfo id="f_0_15.2" depart="6.00" departLane="E0E1_0" departPos="5.10" departSpeed="0.00" departDelay="3.00" arrival="140.00" arrivalLane="E2E3_0" arrivalPos="492.80" arrivalSpeed="13.03" duration="134.00" routeLength="1494.90" waitingTime="0.00" waitingCount="0" stopTime="0.00" timeLoss="23.51" rerouteNo="0" devices="tripinfo_f_0_15.2" vType="DEFAULT_VEHTYPE" speedFactor="0.97" vaporized=""/>
    <tripinfo id="f_0_4.0" depart="1.00" departLane="D7D6_0" departPos="5.10" departSpeed="0.00" departDelay="0.00" arrival="141.00" arrivalLane="D5D4_0" arrivalPos="492.80" arrivalSpeed="11.53" duration="140.00" routeLength="1494.90" waitingTime="0.00" waitingCount="0" stopTime="0.00" timeLoss="9.95" rerouteNo="0" devices="tripinfo_f_0_4.0" vType="DEFAULT_VEHTYPE" speedFactor="0.83" vaporized=""/>
    <tripinfo id="f_0_5.2" depart="11.00" departLane="D3D4_0" departPos="5.10" departSpeed="0.00" departDelay="0.00" arrival="141.00" arrivalLane="D5D6_0" arrivalPos="491.30" arrivalSpeed="12.15" duration="130.00" routeLength="1493.50" waitingTime="0.00" waitingCount="0" stopTime="0.00" timeLoss="9.47" rerouteNo="0" devices="tripinfo_f_0_5.2" vType="DEFAULT_VEHTYPE" speedFactor="0.90" vaporized=""/>
    <tripinfo id="f_0_13.5" depart="16.00" departLane="D0D1_0" departPos="5.10" departSpeed="0.00" departDelay="3.00" arrival="141.00" arrivalLane="D2D3_0" arrivalPos="492.80" arrivalSpeed="14.07" duration="125.00" routeLength="1494.90" waitingTime="0.00" waitingCount="0" stopTime="0.00" timeLoss="22.41" rerouteNo="0" devices="tripinfo_f_0_13.5" vType="DEFAULT_VEHTYPE" speedFactor="1.06" vaporized=""/>
    <tripinfo id="f_0_6.2" depart="24.00" departLane="E7E6_0" departPos="5.10" departSpeed="0.00" departDelay="1.00" arrival="141.00" arrivalLane="E5E4_0" arrivalPos="492.80" arrivalSpeed="12.80" duration="117.00" routeLength="1494.90" waitingTime="0.00" waitingCount="0" stopTime="0.00" timeLoss="8.35" rerouteNo="0" devices="tripinfo_f_0_6.2" vType="DEFAULT_VEHTYPE" speedFactor="0.99" vaporized=""/>
    <tripinfo id="f_0_15.3" depart="9.00" departLane="E0E1_0" departPos="5.10" departSpeed="0.00" departDelay="5.00" arrival="142.00" arrivalLane="E2E3_0" arrivalPos="492.80" arrivalSpeed="15.61" duration="133.00" routeLength="1494.90" waitingTime="0.00" waitingCount="0" stopTime="0.00" timeLoss="41.19" rerouteNo="0" devices="tripinfo_f_0_15.3" vType="DEFAULT_VEHTYPE" speedFactor="1.18" vaporized=""/>
    <tripinfo id="f_0_5.3" depart="15.00" departLane="D3D4_0" departPos="5.10" departSpeed="0.00" departDelay="0.00" arrival="142.00" arrivalLane="D5D6_0" arrivalPos="491.30" arrivalSpeed="13.59" duration="127.00" routeLength="1493.50" waitingTime="0.00" waitingCount="0" stopTime="0.00" timeLoss="21.03" rerouteNo="0" devices="tripinfo_f_0_5.3" vType="DEFAULT_VEHTYPE" speedFactor="1.02" vaporized=""/>
    <tripinfo id="f_0_13.6" depart="19.00" departLane="D0D1_0" departPos="5.10" departSpeed="0.00" departDelay="5.00" arrival="143.00" arrivalLane="D2D3_0" arrivalPos="492.80" arrivalSpeed="13.91" duration="124.00" routeLength="1494.90" waitingTime="0.00" waitingCount="0" stopTime="0.00" timeLoss="18.91" rerouteNo="0" devices="tripinfo_f_0_13.6" vType="DEFAULT_VEHTYPE" speedFactor="1.03" vaporized=""/>
    <tripinfo id="f_0_4.1" depart="15.00" departLane="D7D6_0" departPos="5.10" departSpeed="0.00" departDelay="0.00" arrival="143.00" arrivalLane="D5D4_0" arrivalPos="492.80" arrivalSpeed="12.63" duration="128.00" routeLength="1494.90" waitingTime="0.00" waitingCount="0" stopTime="0.00" timeLoss="19.51" rerouteNo="0" devices="tripinfo_f_0_4.1" vType="DEFAULT_VEHTYPE" speedFactor="1.00" vaporized=""/>
    <tripinfo id="f_0_15.4" depart="12.00" departLane="E0E1_0" departPos="5.10" departSpeed="0.00" departDelay="4.00" arrival="144.00" arrivalLane="E2E3_0" arrivalPos="492.80" arrivalSpeed="12.82" duration="132.00" routeLength="1494.90" waitingTime="0.00" waitingCount="0" stopTime="0.00" timeLoss="23.53" rerouteNo="0" devices="tripinfo_f_0_15.4" vType="DEFAULT_VEHTYPE" speedFactor="1.00" vaporized=""/>
    <tripinfo id="f_0_4.2" depart="19.00" departLane="D7D6_0" departPos="5.10" departSpeed="0.00" departDelay="0.00" arrival="144.00" arrivalLane="D5D4_0" arrivalPos="492.80" arrivalSpeed="14.42" duration="125.00" routeLength="1494.90" waitingTime="0.00" waitingCount="0" stopTime="0.00" timeLoss="26.28" rerouteNo="0" devices="tripinfo_f_0_4.2" vType="DEFAULT_VEHTYPE" speedFactor="1.09" vaporized=""/>
    <tripinfo id="f_0_13.7" depart="22.00" departLane="D0D1_0" departPos="5.10" departSpeed="0.00" departDelay="3.00" arrival="144.00" arrivalLane="D2D3_0" arrivalPos="492.80" arrivalSpeed="14.20" duration="122.00" routeLength="1494.90" waitingTime="0.00" waitingCount="0" stopTime="0.00" timeLoss="23.68" rerouteNo="0" devices="tripinfo_f_0_13.7" vType="DEFAULT_VEHTYPE" speedFactor="1.10" vaporized=""/>
    <tripinfo id="f_0_5.4" depart="23.00" departLane="D3D4_0" departPos="5.10" departSpeed="0.00" departDelay="0.00" arrival="144.00" arrivalLane="D5D6_0" arrivalPos="491.30" arrivalSpeed="13.11" duration="121.00" routeLength="1493.50" waitingTime="0.00" waitingCount="0" stopTime="0.00" timeLoss="13.48" rerouteNo="0" devices="tripinfo_f_0_5.4" vType="DEFAULT_VEHTYPE" speedFactor="1.00" vaporized=""/>
    <tripinfo id="f_0_3.1" depart="5.00" departLane="C3C4_0" departPos="5.10" departSpeed="0.00" departDelay="1.00" arrival="146.00" arrivalLane="C5C6_0" arrivalPos="491.30" arrivalSpeed="11.03" duration="141.00" routeLength="1493.50" waitingTime="0.00" waitingCount="0" stopTime="0.00" timeLoss="10.34" rerouteNo="0" devices="tripinfo_f_0_3.1" vType="DEFAULT_VEHTYPE" speedFactor="0.83" vaporized=""/>
    <tripinfo id="f_0_15.5" depart="15.00" departLane="E0E1_0" departPos="5.10" departSpeed="0.00" departDelay="3.00" arrival="146.00" arrivalLane="E2E3_0" arrivalPos="492.80" arrivalSpeed="11.91" duration="131.00" routeLength="1494.90" waitingTime="0.00" waitingCount="0" stopTime="0.00" timeLoss="12.63" rerouteNo="0" devices="tripinfo_f_0_15.5" vType="DEFAULT_VEHTYPE" speedFactor="0.91" vaporized=""/>
    <tripinfo id="f_0_5.5" depart="26.00" departLane="D3D4_0" departPos="5.10" departSpeed="0.00" departDelay="1.00" arrival="146.00" arrivalLane="D5D6_0" arrivalPos="491.30" arrivalSpeed="14.78" duration="120.00" routeLength="1493.50" waitingTime="0.00" waitingCount="0" stopTime="0.00" timeLoss="22.97" rerouteNo="0" devices="tripinfo_f_0_5.5" vType="DEFAULT_VEHTYPE" speedFactor="1.12" vaporized=""/>
    <tripinfo id="f_0_12.4" depart="14.00" departLane="D4D3_0" departPos="5.10" departSpeed="0.00" departDelay="5.00" arrival="147.00" arrivalLane="D2D1_0" arrivalPos="491.30" arrivalSpeed="11.85" duration="133.00" routeLength="1493.50" waitingTime="0.00" waitingCount="0" stopTime="0.00" timeLoss="9.97" rerouteNo="0" devices="tripinfo_f_0_12.4" vType="DEFAULT_VEHTYPE" speedFactor="0.88" vaporized=""/>
    <tripinfo id="f_0_11.6" depart="19.00" departLane="C0C1_0" departPos="5.10" departSpeed="0.00" departDelay="7.00" arrival="147.00" arrivalLane="C2C3_0" arrivalPos="492.80" arrivalSpeed="11.89" duration="128.00" routeLength="1494.90" waitingTime="0.00" waitingCount="0" stopTime="0.00" timeLoss="9.14" rerouteNo="0" devices="tripinfo_f_0_11.6" vType="DEFAULT_VEHTYPE" speedFactor="0.91" vaporized=""/>
    <tripinfo id="f_0_15.6" depart="18.00" departLane="E0E1_0" departPos="5.10" departSpeed="0.00" departDelay="5.00" arrival="147.00" arrivalLane="E2E3_0" arrivalPos="492.80" arrivalSpeed="12.51" duration="129.00" routeLength="1494.90" waitingTime="0.00" waitingCount="0" stopTime="0.00" timeLoss="16.28" rerouteNo="0" devices="tripinfo_f_0_15.6" vType="DEFAULT_VEHTYPE" speedFactor="0.96" vaporized=""/>
    <tripinfo id="f_0_13.8" depart="25.00" departLane="D0D1_0" departPos="5.10" departSpeed="0.00" departDelay="4.00" arrival="147.00" arrivalLane="D2D3_0" arrivalPos="492.80" arrivalSpeed="13.30" duration="122.00" routeLength="1494.90" waitingTime="0.00" waitingCount="0" stopTime="0.00" timeLoss="8.95" rerouteNo="0" devices="tripinfo_f_0_13.8" vType="DEFAULT_VEHTYPE" speedFactor="0.96" vaporized=""/>
    <tripinfo id="f_0_5.6" depart="37.00" departLane="D3D4_0" departPos="5.10" departSpeed="0.00" departDelay="0.00" arrival="147.00" arrivalLane="D5D6_0" arrivalPos="491.30" arrivalSpeed="14.41" duration="110.00" routeLength="1493.50" waitingTime="0.00" waitingCount="0" stopTime="0.00" timeLoss="10.55" rerouteNo="0" devices="tripinfo_f_0_5.6" vType="DEFAULT_VEHTYPE" speedFactor="1.08" vaporized=""/>
    <tripinfo id="f_0_3.2" depart="8.00" departLane="C3C4_0" departPos="5.10" departSpeed="0.00" departDelay="1.00" arrival="148.00" arrivalLane="C5C6_0" arrivalPos="491.30" arrivalSpeed="13.91" duration="140.00" routeLength="1493.50" waitingTime="0.00" waitingCount="0" stopTime="0.00" timeLoss="34.86" rerouteNo="0" devices="tripinfo_f_0_3.2" vType="DEFAULT_VEHTYPE" speedFactor="1.03" vaporized=""/>
    <tripinfo id="f_0_14.8" depart="25.00" departLane="E4E3_0" departPos="5.10" departSpeed="0.00" departDelay="5.00" arrival="148.00" arrivalLane="E2E1_0" arrivalPos="491.30" arrivalSpeed="12.87" duration="123.00" routeLength="1493.50" waitingTime="0.00" waitingCount="0" stopTime="0.00" timeLoss="9.15" rerouteNo="0" devices="tripinfo_f_0_14.8" vType="DEFAULT_VEHTYPE" speedFactor="0.95" vaporized=""/>
    <tripinfo id="f_0_13.9" depart="28.00" departLane="D0D1_0" departPos="5.10" departSpeed="0.00" departDelay="6.00" arrival="148.00" arrivalLane="D2D3_0" arrivalPos="492.80" arrivalSpeed="13.66" duration="120.00" routeLength="1494.90" waitingTime="0.00" waitingCount="0" stopTime="0.00" timeLoss="13.20" rerouteNo="0" devices="tripinfo_f_0_13.9" vType="DEFAULT_VEHTYPE" speedFactor="1.01" vaporized=""/>
    <tripinfo id="f_0_12.5" depart="17.00" departLane="D4D3_0" departPos="5.10" departSpeed="0.00" departDelay="7.00" arrival="149.00" arrivalLane="D2D1_0" arrivalPos="491.30" arrivalSpeed="12.85" duration="132.00" routeLength="1493.50" waitingTime="0.00" waitingCount="0" stopTime="0.00" timeLoss="25.53" rerouteNo="0" devices="tripinfo_f_0_12.5" vType="DEFAULT_VEHTYPE" speedFactor="1.02" vaporized=""/>
    <tripinfo id="f_0_11.7" depart="22.00" departLane="C0C1_0" departPos="5.10" departSpeed="0.00" departDelay="9.00" arrival="149.00" arrivalLane="C2C3_0" arrivalPos="492.80" arrivalSpeed="12.15" duration="127.00" routeLength="1494.90" waitingTime="0.00" waitingCount="0" stopTime="0.00" timeLoss="12.08" rerouteNo="0" devices="tripinfo_f_0_11.7" vType="DEFAULT_VEHTYPE" speedFactor="0.94" vaporized=""/>
    <tripinfo id="f_0_15.7" depart="21.00" departLane="E0E1_0" departPos="5.10" departSpeed="0.00" departDelay="7.00" arrival="149.00" arrivalLane="E2E3_0" arrivalPos="492.80" arrivalSpeed="13.12" duration="128.00" routeLength="1494.90" waitingTime="0.00" waitingCount="0" stopTime="0.00" timeLoss="18.01" rerouteNo="0" devices="tripinfo_f_0_15.7" vType="DEFAULT_VEHTYPE" speedFactor="0.98" vaporized=""/>