<?xml version="1.0" encoding="UTF-8"?>

<!-- generated on 2024-08-22 13:46:01 by Eclipse SUMO sumo Version 1.17.0
<configuration xmlns:xsi="http://www.w3.org/2001/XMLSchema-instance" xsi:noNamespaceSchemaLocation="http://sumo.dlr.de/xsd/sumoConfiguration.xsd">

    <input>
        <net-file value="double_neat.net.xml"/>
        <route-files value="double_1.rou.xml"/>
    </input>

    <output>
        <tripinfo-output value="emissions_test\z401_pop_200_data_All_gen_300_1emissionsdouble.xml"/>
    </output>

    <processing>
        <time-to-teleport value="-1"/>
    </processing>

    <report>
        <no-warnings value="true"/>
    </report>

    <emissions>
        <device.emissions.probability value="1.0"/>
    </emissions>

    <traci_server>
        <remote-port value="58377"/>
    </traci_server>

</configuration>
-->

<tripinfos xmlns:xsi="http://www.w3.org/2001/XMLSchema-instance" xsi:noNamespaceSchemaLocation="http://sumo.dlr.de/xsd/tripinfo_file.xsd">
    <tripinfo id="f_0_8.0" depart="0.00" departLane="G5G6_0" departPos="5.10" departSpeed="0.00" departDelay="0.00" arrival="115.00" arrivalLane="G7G8_0" arrivalPos="491.30" arrivalSpeed="13.90" duration="115.00" routeLength="1493.50" waitingTime="2.00" waitingCount="1" stopTime="0.00" timeLoss="13.41" rerouteNo="0" devices="tripinfo_f_0_8.0 emissions_f_0_8.0" vType="DEFAULT_VEHTYPE" speedFactor="1.06" vaporized="">
        <emissions CO_abs="3608.583485" CO2_abs="321442.545133" HC_abs="23.362796" PMx_abs="4.912518" NOx_abs="123.396242" fuel_abs="102525.555274" electricity_abs="0"/>
    </tripinfo>
    <tripinfo id="f_0_9.0" depart="2.00" departLane="G9G8_0" departPos="5.10" departSpeed="0.00" departDelay="0.00" arrival="115.00" arrivalLane="G7G6_0" arrivalPos="492.80" arrivalSpeed="13.24" duration="113.00" routeLength="1494.90" waitingTime="0.00" waitingCount="0" stopTime="0.00" timeLoss="7.77" rerouteNo="0" devices="tripinfo_f_0_9.0 emissions_f_0_9.0" vType="DEFAULT_VEHTYPE" speedFactor="1.03" vaporized="">
        <emissions CO_abs="2326.693146" CO2_abs="281517.217771" HC_abs="16.320090" PMx_abs="3.710796" NOx_abs="102.762008" fuel_abs="89791.386167" electricity_abs="0"/>
    </tripinfo>
    <tripinfo id="f_0_8.1" depart="3.00" departLane="G5G6_0" departPos="5.10" departSpeed="0.00" departDelay="0.00" arrival="118.00" arrivalLane="G7G8_0" arrivalPos="491.30" arrivalSpeed="13.98" duration="115.00" routeLength="1493.50" waitingTime="0.00" waitingCount="0" stopTime="0.00" timeLoss="11.41" rerouteNo="0" devices="tripinfo_f_0_8.1 emissions_f_0_8.1" vType="DEFAULT_VEHTYPE" speedFactor="1.05" vaporized="">
        <emissions CO_abs="3050.758017" CO2_abs="310703.446177" HC_abs="20.273326" PMx_abs="4.453173" NOx_abs="116.520704" fuel_abs="99100.329978" electricity_abs="0"/>
    </tripinfo>
    <tripinfo id="f_0_8.2" depart="6.00" departLane="G5G6_0" departPos="5.10" departSpeed="0.00" departDelay="0.00" arrival="120.00" arrivalLane="G7G8_0" arrivalPos="491.30" arrivalSpeed="13.56" duration="114.00" routeLength="1493.50" waitingTime="0.00" waitingCount="0" stopTime="0.00" timeLoss="9.01" rerouteNo="0" devices="tripinfo_f_0_8.2 emissions_f_0_8.2" vType="DEFAULT_VEHTYPE" speedFactor="1.03" vaporized="">
        <emissions CO_abs="2487.332716" CO2_abs="289825.207966" HC_abs="17.265412" PMx_abs="3.812325" NOx_abs="105.628009" fuel_abs="92441.354904" electricity_abs="0"/>
    </tripinfo>
    <tripinfo id="f_0_16.0" depart="1.00" departLane="D2D3_0" departPos="5.10" departSpeed="0.00" departDelay="0.00" arrival="128.00" arrivalLane="D4D5_0" arrivalPos="492.80" arrivalSpeed="14.81" duration="127.00" routeLength="1494.90" waitingTime="12.00" waitingCount="1" stopTime="0.00" timeLoss="26.95" rerouteNo="0" devices="tripinfo_f_0_16.0 emissions_f_0_16.0" vType="DEFAULT_VEHTYPE" speedFactor="1.08" vaporized="">
        <emissions CO_abs="5326.806673" CO2_abs="352104.081735" HC_abs="31.594117" PMx_abs="5.437505" NOx_abs="135.051276" fuel_abs="112305.979261" electricity_abs="0"/>
    </tripinfo>
    <tripinfo id="f_0_17.0" depart="0.00" departLane="D6D5_0" departPos="5.10" departSpeed="0.00" departDelay="0.00" arrival="134.00" arrivalLane="D4D3_0" arrivalPos="491.30" arrivalSpeed="12.07" duration="134.00" routeLength="1493.50" waitingTime="4.00" waitingCount="1" stopTime="0.00" timeLoss="18.50" rerouteNo="0" devices="tripinfo_f_0_17.0 emissions_f_0_17.0" vType="DEFAULT_VEHTYPE" speedFactor="0.94" vaporized="">
        <emissions CO_abs="4362.299797" CO2_abs="334852.183684" HC_abs="27.132906" PMx_abs="4.739254" NOx_abs="126.991797" fuel_abs="106803.437616" electricity_abs="0"/>
    </tripinfo>
    <tripinfo id="f_0_8.3" depart="9.00" departLane="G5G6_0" departPos="5.10" departSpeed="0.00" departDelay="2.00" arrival="134.00" arrivalLane="G7G8_0" arrivalPos="491.30" arrivalSpeed="12.09" duration="125.00" routeLength="1493.50" waitingTime="0.00" waitingCount="0" stopTime="0.00" timeLoss="8.92" rerouteNo="0" devices="tripinfo_f_0_8.3 emissions_f_0_8.3" vType="DEFAULT_VEHTYPE" speedFactor="0.93" vaporized="">
        <emissions CO_abs="2671.943593" CO2_abs="290750.243052" HC_abs="18.412423" PMx_abs="3.671794" NOx_abs="106.968936" fuel_abs="92736.643137" electricity_abs="0"/>
    </tripinfo>
    <tripinfo id="f_0_8.4" depart="12.00" departLane="G5G6_0" departPos="5.10" departSpeed="0.00" departDelay="2.00" arrival="136.00" arrivalLane="G7G8_0" arrivalPos="491.30" arrivalSpeed="13.40" duration="124.00" routeLength="1493.50" waitingTime="0.00" waitingCount="0" stopTime="0.00" timeLoss="18.03" rerouteNo="0" devices="tripinfo_f_0_8.4 emissions_f_0_8.4" vType="DEFAULT_VEHTYPE" speedFactor="1.02" vaporized="">
        <emissions CO_abs="3787.861623" CO2_abs="335397.240526" HC_abs="24.682568" PMx_abs="5.139855" NOx_abs="130.029712" fuel_abs="106976.438969" electricity_abs="0"/>
    </tripinfo>
    <tripinfo id="f_0_17.1" depart="4.00" departLane="D6D5_0" departPos="5.10" departSpeed="0.00" departDelay="0.00" arrival="137.00" arrivalLane="D4D3_0" arrivalPos="491.30" arrivalSpeed="11.06" duration="133.00" routeLength="1493.50" waitingTime="0.00" waitingCount="0" stopTime="0.00" timeLoss="11.58" rerouteNo="0" devices="tripinfo_f_0_17.1 emissions_f_0_17.1" vType="DEFAULT_VEHTYPE" speedFactor="0.89" vaporized="">
        <emissions CO_abs="3270.646574" CO2_abs="310374.098546" HC_abs="21.899962" PMx_abs="4.023138" NOx_abs="116.037912" fuel_abs="98995.891464" electricity_abs="0"/>
    </tripinfo>
    <tripinfo id="f_0_17.2" depart="7.00" departLane="D6D5_0" departPos="5.10" departSpeed="0.00" departDelay="2.00" arrival="139.00" arrivalLane="D4D3_0" arrivalPos="491.30" arrivalSpeed="14.33" duration="132.00" routeLength="1493.50" waitingTime="0.00" waitingCount="0" stopTime="0.00" timeLoss="32.96" rerouteNo="0" devices="tripinfo_f_0_17.2 emissions_f_0_17.2" vType="DEFAULT_VEHTYPE" speedFactor="1.09" vaporized="">
        <emissions CO_abs="4388.048738" CO2_abs="358604.631125" HC_abs="28.152714" PMx_abs="5.603826" NOx_abs="140.887394" fuel_abs="114378.582647" electricity_abs="0"/>
    </tripinfo>
    <tripinfo id="f_0_9.1" depart="5.00" departLane="G9G8_0" departPos="5.10" departSpeed="0.00" departDelay="0.00" arrival="140.00" arrivalLane="G7G6_0" arrivalPos="492.80" arrivalSpeed="10.69" duration="135.00" routeLength="1494.90" waitingTime="0.00" waitingCount="0" stopTime="0.00" timeLoss="9.33" rerouteNo="0" devices="tripinfo_f_0_9.1 emissions_f_0_9.1" vType="DEFAULT_VEHTYPE" speedFactor="0.86" vaporized="">
        <emissions CO_abs="3079.256832" CO2_abs="299890.930579" HC_abs="20.700407" PMx_abs="3.687444" NOx_abs="110.744393" fuel_abs="95652.397759" electricity_abs="0"/>
    </tripinfo>
    <tripinfo id="f_0_17.3" depart="12.00" departLane="D6D5_0" departPos="5.10" departSpeed="0.00" departDelay="0.00" arrival="141.00" arrivalLane="D4D3_0" arrivalPos="491.30" arrivalSpeed="14.69" duration="129.00" routeLength="1493.50" waitingTime="0.00" waitingCount="0" stopTime="0.00" timeLoss="33.20" rerouteNo="0" devices="tripinfo_f_0_17.3 emissions_f_0_17.3" vType="DEFAULT_VEHTYPE" speedFactor="1.13" vaporized="">
        <emissions CO_abs="4562.707782" CO2_abs="371773.354052" HC_abs="29.194746" PMx_abs="5.936410" NOx_abs="146.457656" fuel_abs="118578.677458" electricity_abs="0"/>
    </tripinfo>
    <tripinfo id="f_0_9.2" depart="8.00" departLane="G9G8_0" departPos="5.10" departSpeed="0.00" departDelay="2.00" arrival="142.00" arrivalLane="G7G6_0" arrivalPos="492.80" arrivalSpeed="14.41" duration="134.00" routeLength="1494.90" waitingTime="0.00" waitingCount="0" stopTime="0.00" timeLoss="30.61" rerouteNo="0" devices="tripinfo_f_0_9.2 emissions_f_0_9.2" vType="DEFAULT_VEHTYPE" speedFactor="1.05" vaporized="">
        <emissions CO_abs="4405.518927" CO2_abs="360384.283264" HC_abs="28.262172" PMx_abs="5.522252" NOx_abs="140.790605" fuel_abs="114946.356280" electricity_abs="0"/>
    </tripinfo>
    <tripinfo id="f_0_17.4" depart="22.00" departLane="D6D5_0" departPos="5.10" departSpeed="0.00" departDelay="0.00" arrival="142.00" arrivalLane="D4D3_0" arrivalPos="491.30" arrivalSpeed="15.43" duration="120.00" routeLength="1493.50" waitingTime="0.00" waitingCount="0" stopTime="0.00" timeLoss="28.66" rerouteNo="0" devices="tripinfo_f_0_17.4 emissions_f_0_17.4" vType="DEFAULT_VEHTYPE" speedFactor="1.18" vaporized="">
        <emissions CO_abs="4357.155041" CO2_abs="364975.019306" HC_abs="27.845288" PMx_abs="5.921604" NOx_abs="143.310641" fuel_abs="116410.138547" electricity_abs="0"/>
    </tripinfo>
    <tripinfo id="f_0_16.1" depart="4.00" departLane="D2D3_0" departPos="5.10" departSpeed="0.00" departDelay="2.00" arrival="144.00" arrivalLane="D4D5_0" arrivalPos="492.80" arrivalSpeed="10.37" duration="140.00" routeLength="1494.90" waitingTime="0.00" waitingCount="0" stopTime="0.00" timeLoss="9.62" rerouteNo="0" devices="tripinfo_f_0_16.1 emissions_f_0_16.1" vType="DEFAULT_VEHTYPE" speedFactor="0.83" vaporized="">
        <emissions CO_abs="3188.033442" CO2_abs="298256.096021" HC_abs="21.242356" PMx_abs="3.569330" NOx_abs="109.850099" fuel_abs="95131.134056" electricity_abs="0"/>
    </tripinfo>
    <tripinfo id="f_0_9.3" depart="11.00" departLane="G9G8_0" departPos="5.10" departSpeed="0.00" departDelay="1.00" arrival="144.00" arrivalLane="G7G6_0" arrivalPos="492.80" arrivalSpeed="13.25" duration="133.00" routeLength="1494.90" waitingTime="0.00" waitingCount="0" stopTime="0.00" timeLoss="25.59" rerouteNo="0" devices="tripinfo_f_0_9.3 emissions_f_0_9.3" vType="DEFAULT_VEHTYPE" speedFactor="1.01" vaporized="">
        <emissions CO_abs="4402.285816" CO2_abs="362982.198333" HC_abs="28.337552" PMx_abs="5.589292" NOx_abs="142.029112" fuel_abs="115774.897239" electricity_abs="0"/>
    </tripinfo>
    <tripinfo id="f_0_16.2" depart="7.00" departLane="D2D3_0" departPos="5.10" departSpeed="0.00" departDelay="0.00" arrival="145.00" arrivalLane="D4D5_0" arrivalPos="492.80" arrivalSpeed="11.10" duration="138.00" routeLength="1494.90" waitingTime="0.00" waitingCount="0" stopTime="0.00" timeLoss="15.45" rerouteNo="0" devices="tripinfo_f_0_16.2 emissions_f_0_16.2" vType="DEFAULT_VEHTYPE" speedFactor="0.88" vaporized="">
        <emissions CO_abs="4154.226406" CO2_abs="335586.575016" HC_abs="26.626543" PMx_abs="4.936413" NOx_abs="130.276875" fuel_abs="107037.224378" electricity_abs="0"/>
    </tripinfo>
    <tripinfo id="f_0_8.5" depart="15.00" departLane="G5G6_0" departPos="5.10" departSpeed="0.00" departDelay="4.00" arrival="146.00" arrivalLane="G7G8_0" arrivalPos="491.30" arrivalSpeed="11.48" duration="131.00" routeLength="1493.50" waitingTime="0.00" waitingCount="0" stopTime="0.00" timeLoss="9.87" rerouteNo="0" devices="tripinfo_f_0_8.5 emissions_f_0_8.5" vType="DEFAULT_VEHTYPE" speedFactor="0.89" vaporized="">
        <emissions CO_abs="3132.607908" CO2_abs="299957.230024" HC_abs="20.961543" PMx_abs="3.955455" NOx_abs="112.413921" fuel_abs="95673.271490" electricity_abs="0"/>
    </tripinfo>
    <tripinfo id="f_0_9.4" depart="14.00" departLane="G9G8_0" departPos="5.10" departSpeed="0.00" departDelay="2.00" arrival="146.00" arrivalLane="G7G6_0" arrivalPos="492.80" arrivalSpeed="11.97" duration="132.00" routeLength="1494.90" waitingTime="0.00" waitingCount="0" stopTime="0.00" timeLoss="13.89" rerouteNo="0" devices="tripinfo_f_0_9.4 emissions_f_0_9.4" vType="DEFAULT_VEHTYPE" speedFactor="0.92" vaporized="">
        <emissions CO_abs="4043.613927" CO2_abs="350446.230226" HC_abs="26.384292" PMx_abs="5.176793" NOx_abs="135.395305" fuel_abs="111776.642282" electricity_abs="0"/>
    </tripinfo>
    <tripinfo id="f_0_16.3" depart="10.00" departLane="D2D3_0" departPos="5.10" departSpeed="0.00" departDelay="1.00" arrival="147.00" arrivalLane="D4D5_0" arrivalPos="492.80" arrivalSpeed="12.39" duration="137.00" routeLength="1494.90" waitingTime="0.00" waitingCount="0" stopTime="0.00" timeLoss="21.71" rerouteNo="0" devices="tripinfo_f_0_16.3 emissions_f_0_16.3" vType="DEFAULT_VEHTYPE" speedFactor="0.94" vaporized="">
        <emissions CO_abs="4802.441739" CO2_abs="374207.826847" HC_abs="30.470915" PMx_abs="5.891143" NOx_abs="147.770983" fuel_abs="119355.363548" electricity_abs="0"/>
    </tripinfo>
    <tripinfo id="f_0_9.5" depart="17.00" departLane="G9G8_0" departPos="5.10" departSpeed="0.00" departDelay="4.00" arrival="147.00" arrivalLane="G7G6_0" arrivalPos="492.80" arrivalSpeed="11.93" duration="130.00" routeLength="1494.90" waitingTime="0.00" waitingCount="0" stopTime="0.00" timeLoss="14.41" rerouteNo="0" devices="tripinfo_f_0_9.5 emissions_f_0_9.5" vType="DEFAULT_VEHTYPE" speedFactor="0.93" vaporized="">
        <emissions CO_abs="3746.777282" CO2_abs="351980.328584" HC_abs="24.846070" PMx_abs="4.842672" NOx_abs="133.169532" fuel_abs="112266.177853" electricity_abs="0"/>
    </tripinfo>
    <tripinfo id="f_0_17.5" depart="25.00" departLane="D6D5_0" departPos="5.10" departSpeed="0.00" departDelay="2.00" arrival="160.00" arrivalLane="D4D3_0" arrivalPos="491.30" arrivalSpeed="14.46" duration="135.00" routeLength="1493.50" waitingTime="20.00" waitingCount="1" stopTime="0.00" timeLoss="37.04" rerouteNo="0" devices="tripinfo_f_0_17.5 emissions_f_0_17.5" vType="DEFAULT_VEHTYPE" speedFactor="1.10" vaporized="">
        <emissions CO_abs="6784.949402" CO2_abs="386768.586289" HC_abs="39.044536" PMx_abs="6.219709" NOx_abs="150.183325" fuel_abs="123362.748028" electricity_abs="0"/>
    </tripinfo>
    <tripinfo id="f_0_17.6" depart="29.00" departLane="D6D5_0" departPos="5.10" departSpeed="0.00" departDelay="0.00" arrival="162.00" arrivalLane="D4D3_0" arrivalPos="491.30" arrivalSpeed="14.98" duration="133.00" routeLength="1493.50" waitingTime="14.00" waitingCount="1" stopTime="0.00" timeLoss="34.18" rerouteNo="0" devices="tripinfo_f_0_17.6 emissions_f_0_17.6" vType="DEFAULT_VEHTYPE" speedFactor="1.09" vaporized="">
        <emissions CO_abs="6888.287248" CO2_abs="398831.919636" HC_abs="39.945167" PMx_abs="6.696319" NOx_abs="157.561764" fuel_abs="127210.040407" electricity_abs="0"/>
    </tripinfo>
    <tripinfo id="f_0_1.0" depart="1.00" departLane="F7E7_0" departPos="5.10" departSpeed="0.00" departDelay="0.00" arrival="163.00" arrivalLane="C7B7_0" arrivalPos="491.30" arrivalSpeed="12.83" duration="162.00" routeLength="1993.50" waitingTime="3.00" waitingCount="1" stopTime="0.00" timeLoss="19.23" rerouteNo="0" devices="tripinfo_f_0_1.0 emissions_f_0_1.0" vType="DEFAULT_VEHTYPE" speedFactor="1.01" vaporized="">
        <emissions CO_abs="4201.744337" CO2_abs="408000.132855" HC_abs="27.495893" PMx_abs="5.365181" NOx_abs="149.951719" fuel_abs="130134.284300" electricity_abs="0"/>
    </tripinfo>
    <tripinfo id="f_0_9.6" depart="20.00" departLane="G9G8_0" departPos="5.10" departSpeed="0.00" departDelay="1.00" arrival="164.00" arrivalLane="G7G6_0" arrivalPos="492.80" arrivalSpeed="13.22" duration="144.00" routeLength="1494.90" waitingTime="21.00" waitingCount="1" stopTime="0.00" timeLoss="34.95" rerouteNo="0" devices="tripinfo_f_0_9.6 emissions_f_0_9.6" vType="DEFAULT_VEHTYPE" speedFactor="0.99" vaporized="">
        <emissions CO_abs="6906.792243" CO2_abs="383329.015055" HC_abs="39.731729" PMx_abs="5.978704" NOx_abs="148.621514" fuel_abs="122266.021585" electricity_abs="0"/>
    </tripinfo>
    <tripinfo id="f_0_1.1" depart="7.00" departLane="F7E7_0" departPos="5.10" departSpeed="0.00" departDelay="0.00" arrival="165.00" arrivalLane="C7B7_0" arrivalPos="491.30" arrivalSpeed="12.95" duration="158.00" routeLength="1993.50" waitingTime="0.00" waitingCount="0" stopTime="0.00" timeLoss="12.69" rerouteNo="0" devices="tripinfo_f_0_1.1 emissions_f_0_1.1" vType="DEFAULT_VEHTYPE" speedFactor="0.99" vaporized="">
        <emissions CO_abs="3782.851325" CO2_abs="399285.147297" HC_abs="25.738004" PMx_abs="5.571771" NOx_abs="149.489055" fuel_abs="127354.012565" electricity_abs="0"/>
    </tripinfo>
    <tripinfo id="f_0_9.7" depart="25.00" departLane="G9G8_0" departPos="5.10" departSpeed="0.00" departDelay="0.00" arrival="165.00" arrivalLane="G7G6_0" arrivalPos="492.80" arrivalSpeed="13.33" duration="140.00" routeLength="1494.90" waitingTime="20.00" waitingCount="1" stopTime="0.00" timeLoss="35.40" rerouteNo="0" devices="tripinfo_f_0_9.7 emissions_f_0_9.7" vType="DEFAULT_VEHTYPE" speedFactor="1.03" vaporized="">
        <emissions CO_abs="6501.302297" CO2_abs="370671.461128" HC_abs="37.549464" PMx_abs="5.705324" NOx_abs="142.920807" fuel_abs="118228.765326" electricity_abs="0"/>
    </tripinfo>
    <tripinfo id="f_0_16.4" depart="13.00" departLane="D2D3_0" departPos="5.10" departSpeed="0.00" departDelay="1.00" arrival="166.00" arrivalLane="D4D5_0" arrivalPos="492.80" arrivalSpeed="12.61" duration="153.00" routeLength="1494.90" waitingTime="19.00" waitingCount="1" stopTime="0.00" timeLoss="39.10" rerouteNo="0" devices="tripinfo_f_0_16.4 emissions_f_0_16.4" vType="DEFAULT_VEHTYPE" speedFactor="0.95" vaporized="">
        <emissions CO_abs="7849.836565" CO2_abs="412760.541565" HC_abs="45.166853" PMx_abs="7.023371" NOx_abs="165.965227" fuel_abs="131652.973484" electricity_abs="0"/>
    </tripinfo>
    <tripinfo id="f_0_16.5" depart="16.00" departLane="D2D3_0" departPos="5.10" departSpeed="0.00" departDelay="1.00" arrival="168.00" arrivalLane="D4D5_0" arrivalPos="492.80" arrivalSpeed="16.01" duration="152.00" routeLength="1494.90" waitingTime="17.00" waitingCount="1" stopTime="0.00" timeLoss="57.95" rerouteNo="0" devices="tripinfo_f_0_16.5 emissions_f_0_16.5" vType="DEFAULT_VEHTYPE" speedFactor="1.15" vaporized="">
        <emissions CO_abs="8174.130215" CO2_abs="443408.608324" HC_abs="47.341464" PMx_abs="7.742466" NOx_abs="179.561058" fuel_abs="141428.001136" electricity_abs="0"/>
    </tripinfo>
    <tripinfo id="f_0_16.6" depart="24.00" departLane="D2D3_0" departPos="5.10" departSpeed="0.00" departDelay="0.00" arrival="172.00" arrivalLane="D4D5_0" arrivalPos="492.80" arrivalSpeed="12.20" duration="148.00" routeLength="1494.90" waitingTime="13.00" waitingCount="1" stopTime="0.00" timeLoss="28.15" rerouteNo="0" devices="tripinfo_f_0_16.6 emissions_f_0_16.6" vType="DEFAULT_VEHTYPE" speedFactor="0.90" vaporized="">
        <emissions CO_abs="5884.515490" CO2_abs="361312.785461" HC_abs="34.745830" PMx_abs="5.201030" NOx_abs="138.385584" fuel_abs="115243.845699" electricity_abs="0"/>
    </tripinfo>
    <tripinfo id="f_0_16.7" depart="27.00" departLane="D2D3_0" departPos="5.10" departSpeed="0.00" departDelay="1.00" arrival="174.00" arrivalLane="D4D5_0" arrivalPos="492.80" arrivalSpeed="14.52" duration="147.00" routeLength="1494.90" waitingTime="12.00" waitingCount="1" stopTime="0.00" timeLoss="47.70" rerouteNo="0" devices="tripinfo_f_0_16.7 emissions_f_0_16.7" vType="DEFAULT_VEHTYPE" speedFactor="1.09" vaporized="">
        <emissions CO_abs="6809.961138" CO2_abs="393972.276733" HC_abs="39.984582" PMx_abs="6.588802" NOx_abs="157.491499" fuel_abs="125660.030824" electricity_abs="0"/>
    </tripinfo>
    <tripinfo id="f_0_16.8" depart="30.00" departLane="D2D3_0" departPos="5.10" departSpeed="0.00" departDelay="2.00" arrival="175.00" arrivalLane="D4D5_0" arrivalPos="492.80" arrivalSpeed="13.53" duration="145.00" routeLength="1494.90" waitingTime="11.00" waitingCount="1" stopTime="0.00" timeLoss="41.81" rerouteNo="0" devices="tripinfo_f_0_16.8 emissions_f_0_16.8" vType="DEFAULT_VEHTYPE" speedFactor="1.04" vaporized="">
        <emissions CO_abs="7027.703007" CO2_abs="414546.721423" HC_abs="41.424363" PMx_abs="7.035991" NOx_abs="166.297031" fuel_abs="132222.174821" electricity_abs="0"/>
    </tripinfo>
    <tripinfo id="f_0_17.7" depart="32.00" departLane="D6D5_0" departPos="5.10" departSpeed="0.00" departDelay="2.00" arrival="179.00" arrivalLane="D4D3_0" arrivalPos="491.30" arrivalSpeed="11.44" duration="147.00" routeLength="1493.50" waitingTime="4.00" waitingCount="1" stopTime="0.00" timeLoss="19.72" rerouteNo="0" devices="tripinfo_f_0_17.7 emissions_f_0_17.7" vType="DEFAULT_VEHTYPE" speedFactor="0.85" vaporized="">
        <emissions CO_abs="4592.689143" CO2_abs="335103.040119" HC_abs="28.383773" PMx_abs="4.430819" NOx_abs="126.014510" fuel_abs="106883.927771" electricity_abs="0"/>
    </tripinfo>
    <tripinfo id="f_0_16.9" depart="33.00" departLane="D2D3_0" departPos="5.10" departSpeed="0.00" departDelay="3.00" arrival="180.00" arrivalLane="D4D5_0" arrivalPos="492.80" arrivalSpeed="12.07" duration="147.00" routeLength="1494.90" waitingTime="6.00" waitingCount="1" stopTime="0.00" timeLoss="23.34" rerouteNo="0" devices="tripinfo_f_0_16.9 emissions_f_0_16.9" vType="DEFAULT_VEHTYPE" speedFactor="0.88" vaporized="">
        <emissions CO_abs="5234.975735" CO2_abs="351138.533672" HC_abs="31.707521" PMx_abs="4.923023" NOx_abs="133.952368" fuel_abs="111998.504233" electricity_abs="0"/>
    </tripinfo>
    <tripinfo id="f_0_17.8" depart="35.00" departLane="D6D5_0" departPos="5.10" departSpeed="0.00" departDelay="2.00" arrival="180.00" arrivalLane="D4D3_0" arrivalPos="491.30" arrivalSpeed="13.88" duration="145.00" routeLength="1493.50" waitingTime="3.00" waitingCount="1" stopTime="0.00" timeLoss="50.66" rerouteNo="0" devices="tripinfo_f_0_17.8 emissions_f_0_17.8" vType="DEFAULT_VEHTYPE" speedFactor="1.14" vaporized="">
        <emissions CO_abs="5763.196441" CO2_abs="372621.229397" HC_abs="34.769249" PMx_abs="6.032027" NOx_abs="148.274581" fuel_abs="118849.735777" electricity_abs="0"/>
    </tripinfo>
    <tripinfo id="f_0_16.10" depart="36.00" departLane="D2D3_0" departPos="5.10" departSpeed="0.00" departDelay="5.00" arrival="181.00" arrivalLane="D4D5_0" arrivalPos="492.80" arrivalSpeed="13.37" duration="145.00" routeLength="1494.90" waitingTime="6.00" waitingCount="1" stopTime="0.00" timeLoss="38.93" rerouteNo="0" devices="tripinfo_f_0_16.10 emissions_f_0_16.10" vType="DEFAULT_VEHTYPE" speedFactor="1.02" vaporized="">
        <emissions CO_abs="5972.546319" CO2_abs="371600.007638" HC_abs="35.634247" PMx_abs="5.910027" NOx_abs="146.711721" fuel_abs="118524.302372" electricity_abs="0"/>
    </tripinfo>
    <tripinfo id="f_0_17.9" depart="38.00" departLane="D6D5_0" departPos="5.10" departSpeed="0.00" departDelay="4.00" arrival="182.00" arrivalLane="D4D3_0" arrivalPos="491.30" arrivalSpeed="12.45" duration="144.00" routeLength="1493.50" waitingTime="2.00" waitingCount="1" stopTime="0.00" timeLoss="32.62" rerouteNo="0" devices="tripinfo_f_0_17.9 emissions_f_0_17.9" vType="DEFAULT_VEHTYPE" speedFactor="0.97" vaporized="">
        <emissions CO_abs="5843.985360" CO2_abs="382167.223043" HC_abs="35.383233" PMx_abs="6.154653" NOx_abs="151.663708" fuel_abs="121894.497978" electricity_abs="0"/>
    </tripinfo>
    <tripinfo id="f_0_16.11" depart="39.00" departLane="D2D3_0" departPos="5.10" departSpeed="0.00" departDelay="7.00" arrival="183.00" arrivalLane="D4D5_0" arrivalPos="492.80" arrivalSpeed="13.38" duration="144.00" routeLength="1494.90" waitingTime="5.00" waitingCount="1" stopTime="0.00" timeLoss="35.47" rerouteNo="0" devices="tripinfo_f_0_16.11 emissions_f_0_16.11" vType="DEFAULT_VEHTYPE" speedFactor="1.00" vaporized="">
        <emissions CO_abs="6505.614633" CO2_abs="408630.839806" HC_abs="39.048442" PMx_abs="6.705291" NOx_abs="162.738938" fuel_abs="130335.253228" electricity_abs="0"/>
    </tripinfo>
    <tripinfo id="f_0_1.2" depart="11.00" departLane="F7E7_0" departPos="5.10" departSpeed="0.00" departDelay="0.00" arrival="184.00" arrivalLane="C7B7_0" arrivalPos="491.30" arrivalSpeed="13.09" duration="173.00" routeLength="1993.50" waitingTime="10.00" waitingCount="1" stopTime="0.00" timeLoss="25.49" rerouteNo="0" devices="tripinfo_f_0_1.2 emissions_f_0_1.2" vType="DEFAULT_VEHTYPE" speedFactor="0.97" vaporized="">
        <emissions CO_abs="5618.067927" CO2_abs="430392.209362" HC_abs="34.461309" PMx_abs="5.928888" NOx_abs="160.917690" fuel_abs="137276.780050" electricity_abs="0"/>
    </tripinfo>
    <tripinfo id="f_0_17.10" depart="41.00" departLane="D6D5_0" departPos="5.10" departSpeed="0.00" departDelay="5.00" arrival="184.00" arrivalLane="D4D3_0" arrivalPos="491.30" arrivalSpeed="12.51" duration="143.00" routeLength="1493.50" waitingTime="2.00" waitingCount="1" stopTime="0.00" timeLoss="33.44" rerouteNo="0" devices="tripinfo_f_0_17.10 emissions_f_0_17.10" vType="DEFAULT_VEHTYPE" speedFactor="0.99" vaporized="">
        <emissions CO_abs="6051.934781" CO2_abs="400960.230303" HC_abs="36.699347" PMx_abs="6.619852" NOx_abs="160.184229" fuel_abs="127888.378164" electricity_abs="0"/>
    </tripinfo>
    <tripinfo id="f_0_16.12" depart="43.00" departLane="D2D3_0" departPos="5.10" departSpeed="0.00" departDelay="5.00" arrival="185.00" arrivalLane="D4D5_0" arrivalPos="492.80" arrivalSpeed="13.52" duration="142.00" routeLength="1494.90" waitingTime="5.00" waitingCount="1" stopTime="0.00" timeLoss="37.76" rerouteNo="0" devices="tripinfo_f_0_16.12 emissions_f_0_16.12" vType="DEFAULT_VEHTYPE" speedFactor="1.04" vaporized="">
        <emissions CO_abs="6387.005839" CO2_abs="405491.085585" HC_abs="38.301252" PMx_abs="6.863797" NOx_abs="162.688168" fuel_abs="129333.511451" electricity_abs="0"/>
    </tripinfo>
    <tripinfo id="f_0_1.3" depart="18.00" departLane="F7E7_0" departPos="5.10" departSpeed="0.00" departDelay="0.00" arrival="186.00" arrivalLane="C7B7_0" arrivalPos="491.30" arrivalSpeed="13.75" duration="168.00" routeLength="1993.50" waitingTime="7.00" waitingCount="1" stopTime="0.00" timeLoss="24.55" rerouteNo="0" devices="tripinfo_f_0_1.3 emissions_f_0_1.3" vType="DEFAULT_VEHTYPE" speedFactor="1.01" vaporized="">
        <emissions CO_abs="5483.695299" CO2_abs="438219.843087" HC_abs="34.088840" PMx_abs="6.318667" NOx_abs="165.773171" fuel_abs="139772.965400" electricity_abs="0"/>
    </tripinfo>
    <tripinfo id="f_0_17.11" depart="44.00" departLane="D6D5_0" departPos="5.10" departSpeed="0.00" departDelay="7.00" arrival="186.00" arrivalLane="D4D3_0" arrivalPos="491.30" arrivalSpeed="11.99" duration="142.00" routeLength="1493.50" waitingTime="1.00" waitingCount="1" stopTime="0.00" timeLoss="19.60" rerouteNo="0" devices="tripinfo_f_0_17.11 emissions_f_0_17.11" vType="DEFAULT_VEHTYPE" speedFactor="0.88" vaporized="">
        <emissions CO_abs="5085.283591" CO2_abs="367130.316597" HC_abs="31.505283" PMx_abs="5.550996" NOx_abs="143.249684" fuel_abs="117098.470654" electricity_abs="0"/>
    </tripinfo>
    <tripinfo id="f_0_1.4" depart="21.00" departLane="F7E7_0" departPos="5.10" departSpeed="0.00" departDelay="2.00" arrival="187.00" arrivalLane="C7B7_0" arrivalPos="491.30" arrivalSpeed="15.98" duration="166.00" routeLength="1993.50" waitingTime="6.00" waitingCount="1" stopTime="0.00" timeLoss="43.37" rerouteNo="0" devices="tripinfo_f_0_1.4 emissions_f_0_1.4" vType="DEFAULT_VEHTYPE" speedFactor="1.17" vaporized="">
        <emissions CO_abs="5882.692892" CO2_abs="463691.672966" HC_abs="36.632200" PMx_abs="7.078726" NOx_abs="178.272436" fuel_abs="147896.979539" electricity_abs="0"/>
    </tripinfo>
    <tripinfo id="f_0_16.13" depart="46.00" departLane="D2D3_0" departPos="5.10" departSpeed="0.00" departDelay="6.00" arrival="187.00" arrivalLane="D4D5_0" arrivalPos="492.80" arrivalSpeed="12.92" duration="141.00" routeLength="1494.90" waitingTime="5.00" waitingCount="1" stopTime="0.00" timeLoss="25.66" rerouteNo="0" devices="tripinfo_f_0_16.13 emissions_f_0_16.13" vType="DEFAULT_VEHTYPE" speedFactor="0.94" vaporized="">
        <emissions CO_abs="5889.417653" CO2_abs="376242.643721" HC_abs="35.345930" PMx_abs="6.204432" NOx_abs="149.808785" fuel_abs="120004.748628" electricity_abs="0"/>
    </tripinfo>
    <tripinfo id="f_0_9.8" depart="28.00" departLane="G9G8_0" departPos="5.10" departSpeed="0.00" departDelay="0.00" arrival="188.00" arrivalLane="G7G6_0" arrivalPos="492.80" arrivalSpeed="14.07" duration="160.00" routeLength="1494.90" waitingTime="35.00" waitingCount="2" stopTime="0.00" timeLoss="55.91" rerouteNo="0" devices="tripinfo_f_0_9.8 emissions_f_0_9.8" vType="DEFAULT_VEHTYPE" speedFactor="1.04" vaporized="">
        <emissions CO_abs="10311.533464" CO2_abs="448327.374331" HC_abs="56.879382" PMx_abs="7.860601" NOx_abs="180.263868" fuel_abs="142998.184830" electricity_abs="0"/>
    </tripinfo>
    <tripinfo id="f_0_17.12" depart="47.00" departLane="D6D5_0" departPos="5.10" departSpeed="0.00" departDelay="7.00" arrival="188.00" arrivalLane="D4D3_0" arrivalPos="491.30" arrivalSpeed="14.21" duration="141.00" routeLength="1493.50" waitingTime="0.00" waitingCount="0" stopTime="0.00" timeLoss="38.23" rerouteNo="0" devices="tripinfo_f_0_17.12 emissions_f_0_17.12" vType="DEFAULT_VEHTYPE" speedFactor="1.06" vaporized="">
        <emissions CO_abs="5905.928505" CO2_abs="402873.898236" HC_abs="36.240010" PMx_abs="6.859616" NOx_abs="162.738826" fuel_abs="128498.396021" electricity_abs="0"/>
    </tripinfo>