<?xml version="1.0" encoding="UTF-8"?>

<!-- generated on 2024-08-22 13:50:07 by Eclipse SUMO sumo Version 1.17.0
<configuration xmlns:xsi="http://www.w3.org/2001/XMLSchema-instance" xsi:noNamespaceSchemaLocation="http://sumo.dlr.de/xsd/sumoConfiguration.xsd">

    <input>
        <net-file value="double_neat.net.xml"/>
        <route-files value="double_3.rou.xml"/>
    </input>

    <output>
        <tripinfo-output value="emissions_test\z401_pop_200_data_VehicleNumberAndHaltingNumber_gen_300_3emissionsdouble.xml"/>
    </output>

    <processing>
        <time-to-teleport value="-1"/>
    </processing>

    <report>
        <no-warnings value="true"/>
    </report>

    <emissions>
        <device.emissions.probability value="1.0"/>
    </emissions>

    <traci_server>
        <remote-port value="58422"/>
    </traci_server>

</configuration>
-->

<tripinfos xmlns:xsi="http://www.w3.org/2001/XMLSchema-instance" xsi:noNamespaceSchemaLocation="http://sumo.dlr.de/xsd/tripinfo_file.xsd">
    <tripinfo id="f_0_11.0" depart="3.00" departLane="H9H8_0" departPos="5.10" departSpeed="0.00" departDelay="0.00" arrival="120.00" arrivalLane="H7H6_0" arrivalPos="492.80" arrivalSpeed="12.66" duration="117.00" routeLength="1494.90" waitingTime="0.00" waitingCount="0" stopTime="0.00" timeLoss="8.28" rerouteNo="0" devices="tripinfo_f_0_11.0 emissions_f_0_11.0" vType="DEFAULT_VEHTYPE" speedFactor="0.99" vaporized="">
        <emissions CO_abs="2220.843160" CO2_abs="277064.071425" HC_abs="15.741848" PMx_abs="3.408435" NOx_abs="100.259208" fuel_abs="88371.251707" electricity_abs="0"/>
    </tripinfo>
    <tripinfo id="f_1_23.0" depart="10.00" departLane="H6H5_0" departPos="5.10" departSpeed="0.00" departDelay="0.00" arrival="121.00" arrivalLane="H4H3_0" arrivalPos="491.30" arrivalSpeed="13.68" duration="111.00" routeLength="1493.50" waitingTime="0.00" waitingCount="0" stopTime="0.00" timeLoss="7.94" rerouteNo="0" devices="tripinfo_f_1_23.0 emissions_f_1_23.0" vType="DEFAULT_VEHTYPE" speedFactor="1.04" vaporized="">
        <emissions CO_abs="2301.456319" CO2_abs="285946.201009" HC_abs="16.444036" PMx_abs="3.799207" NOx_abs="105.045064" fuel_abs="91203.966987" electricity_abs="0"/>
    </tripinfo>
    <tripinfo id="f_0_11.1" depart="10.00" departLane="H9H8_0" departPos="5.10" departSpeed="0.00" departDelay="0.00" arrival="123.00" arrivalLane="H7H6_0" arrivalPos="492.80" arrivalSpeed="13.16" duration="113.00" routeLength="1494.90" waitingTime="0.00" waitingCount="0" stopTime="0.00" timeLoss="8.39" rerouteNo="0" devices="tripinfo_f_0_11.1 emissions_f_0_11.1" vType="DEFAULT_VEHTYPE" speedFactor="1.03" vaporized="">
        <emissions CO_abs="2346.646850" CO2_abs="288973.765353" HC_abs="16.480313" PMx_abs="3.693401" NOx_abs="104.594559" fuel_abs="92169.807566" electricity_abs="0"/>
    </tripinfo>
    <tripinfo id="f_1_16.0" depart="3.00" departLane="D2D3_0" departPos="5.10" departSpeed="0.00" departDelay="0.00" arrival="129.00" arrivalLane="D4D5_0" arrivalPos="492.80" arrivalSpeed="12.32" duration="126.00" routeLength="1494.90" waitingTime="0.00" waitingCount="0" stopTime="0.00" timeLoss="9.13" rerouteNo="0" devices="tripinfo_f_1_16.0 emissions_f_1_16.0" vType="DEFAULT_VEHTYPE" speedFactor="0.93" vaporized="">
        <emissions CO_abs="2892.202858" CO2_abs="301481.790298" HC_abs="19.756711" PMx_abs="3.908441" NOx_abs="111.768354" fuel_abs="96159.486908" electricity_abs="0"/>
    </tripinfo>
    <tripinfo id="f_1_21.0" depart="3.00" departLane="G6G5_0" departPos="5.10" departSpeed="0.00" departDelay="0.00" arrival="129.00" arrivalLane="G4G3_0" arrivalPos="491.30" arrivalSpeed="15.83" duration="126.00" routeLength="1493.50" waitingTime="18.00" waitingCount="1" stopTime="0.00" timeLoss="32.57" rerouteNo="0" devices="tripinfo_f_1_21.0 emissions_f_1_21.0" vType="DEFAULT_VEHTYPE" speedFactor="1.16" vaporized="">
        <emissions CO_abs="6520.270170" CO2_abs="381457.235040" HC_abs="37.559796" PMx_abs="6.168226" NOx_abs="146.914465" fuel_abs="121668.539982" electricity_abs="0"/>
    </tripinfo>
    <tripinfo id="f_1_16.1" depart="6.00" departLane="D2D3_0" departPos="5.10" departSpeed="0.00" departDelay="2.00" arrival="130.00" arrivalLane="D4D5_0" arrivalPos="492.80" arrivalSpeed="13.50" duration="124.00" routeLength="1494.90" waitingTime="0.00" waitingCount="0" stopTime="0.00" timeLoss="17.35" rerouteNo="0" devices="tripinfo_f_1_16.1 emissions_f_1_16.1" vType="DEFAULT_VEHTYPE" speedFactor="1.01" vaporized="">
        <emissions CO_abs="3287.765856" CO2_abs="321525.720714" HC_abs="22.112884" PMx_abs="4.575729" NOx_abs="122.173371" fuel_abs="102552.274660" electricity_abs="0"/>
    </tripinfo>
    <tripinfo id="f_1_20.0" depart="0.00" departLane="G2G3_0" departPos="5.10" departSpeed="0.00" departDelay="0.00" arrival="131.00" arrivalLane="G4G5_0" arrivalPos="492.80" arrivalSpeed="14.35" duration="131.00" routeLength="1494.90" waitingTime="19.00" waitingCount="1" stopTime="0.00" timeLoss="31.30" rerouteNo="0" devices="tripinfo_f_1_20.0 emissions_f_1_20.0" vType="DEFAULT_VEHTYPE" speedFactor="1.08" vaporized="">
        <emissions CO_abs="6234.284762" CO2_abs="365212.139753" HC_abs="35.651422" PMx_abs="5.631293" NOx_abs="139.695146" fuel_abs="116487.276273" electricity_abs="0"/>
    </tripinfo>
    <tripinfo id="f_1_17.0" depart="1.00" departLane="D6D5_0" departPos="5.10" departSpeed="0.00" departDelay="0.00" arrival="131.00" arrivalLane="D4D3_0" arrivalPos="491.30" arrivalSpeed="12.13" duration="130.00" routeLength="1493.50" waitingTime="0.00" waitingCount="0" stopTime="0.00" timeLoss="8.29" rerouteNo="0" devices="tripinfo_f_1_17.0 emissions_f_1_17.0" vType="DEFAULT_VEHTYPE" speedFactor="0.89" vaporized="">
        <emissions CO_abs="2927.453315" CO2_abs="300794.523294" HC_abs="19.946227" PMx_abs="3.790864" NOx_abs="111.184182" fuel_abs="95940.422393" electricity_abs="0"/>
    </tripinfo>
    <tripinfo id="f_1_15.0" depart="10.00" departLane="C6C5_0" departPos="5.10" departSpeed="0.00" departDelay="0.00" arrival="131.00" arrivalLane="C4C3_0" arrivalPos="491.30" arrivalSpeed="13.97" duration="121.00" routeLength="1493.50" waitingTime="8.00" waitingCount="1" stopTime="0.00" timeLoss="21.70" rerouteNo="0" devices="tripinfo_f_1_15.0 emissions_f_1_15.0" vType="DEFAULT_VEHTYPE" speedFactor="1.09" vaporized="">
        <emissions CO_abs="4838.698933" CO2_abs="349588.606325" HC_abs="29.478342" PMx_abs="5.519457" NOx_abs="134.782466" fuel_abs="111503.258307" electricity_abs="0"/>
    </tripinfo>
    <tripinfo id="f_1_14.0" depart="0.00" departLane="C2C3_0" departPos="5.10" departSpeed="0.00" departDelay="0.00" arrival="133.00" arrivalLane="C4C5_0" arrivalPos="492.80" arrivalSpeed="13.72" duration="133.00" routeLength="1494.90" waitingTime="13.00" waitingCount="1" stopTime="0.00" timeLoss="26.29" rerouteNo="0" devices="tripinfo_f_1_14.0 emissions_f_1_14.0" vType="DEFAULT_VEHTYPE" speedFactor="1.01" vaporized="">
        <emissions CO_abs="5335.199855" CO2_abs="357017.514291" HC_abs="31.916350" PMx_abs="5.350909" NOx_abs="136.755014" fuel_abs="113873.302656" electricity_abs="0"/>
    </tripinfo>
    <tripinfo id="f_0_8.0" depart="9.00" departLane="G5G6_0" departPos="5.10" departSpeed="0.00" departDelay="0.00" arrival="133.00" arrivalLane="G7G8_0" arrivalPos="491.30" arrivalSpeed="12.87" duration="124.00" routeLength="1493.50" waitingTime="4.00" waitingCount="1" stopTime="0.00" timeLoss="18.02" rerouteNo="0" devices="tripinfo_f_0_8.0 emissions_f_0_8.0" vType="DEFAULT_VEHTYPE" speedFactor="1.02" vaporized="">
        <emissions CO_abs="3875.341316" CO2_abs="323157.231769" HC_abs="24.461015" PMx_abs="4.648266" NOx_abs="122.014181" fuel_abs="103072.955500" electricity_abs="0"/>
    </tripinfo>
    <tripinfo id="f_1_14.1" depart="3.00" departLane="C2C3_0" departPos="5.10" departSpeed="0.00" departDelay="2.00" arrival="135.00" arrivalLane="C4C5_0" arrivalPos="492.80" arrivalSpeed="13.76" duration="132.00" routeLength="1494.90" waitingTime="12.00" waitingCount="1" stopTime="0.00" timeLoss="28.64" rerouteNo="0" devices="tripinfo_f_1_14.1 emissions_f_1_14.1" vType="DEFAULT_VEHTYPE" speedFactor="1.05" vaporized="">
        <emissions CO_abs="5770.631340" CO2_abs="366535.718389" HC_abs="34.300520" PMx_abs="5.894693" NOx_abs="143.256064" fuel_abs="116908.921129" electricity_abs="0"/>
    </tripinfo>
    <tripinfo id="f_1_15.1" depart="13.00" departLane="C6C5_0" departPos="5.10" departSpeed="0.00" departDelay="0.00" arrival="135.00" arrivalLane="C4C3_0" arrivalPos="491.30" arrivalSpeed="12.71" duration="122.00" routeLength="1493.50" waitingTime="0.00" waitingCount="0" stopTime="0.00" timeLoss="14.61" rerouteNo="0" devices="tripinfo_f_1_15.1 emissions_f_1_15.1" vType="DEFAULT_VEHTYPE" speedFactor="1.00" vaporized="">
        <emissions CO_abs="3231.738800" CO2_abs="324932.786820" HC_abs="21.282935" PMx_abs="4.197908" NOx_abs="118.856927" fuel_abs="103639.415903" electricity_abs="0"/>
    </tripinfo>
    <tripinfo id="f_0_9.0" depart="0.00" departLane="G9G8_0" departPos="5.10" departSpeed="0.00" departDelay="0.00" arrival="136.00" arrivalLane="G7G6_0" arrivalPos="492.80" arrivalSpeed="12.14" duration="136.00" routeLength="1494.90" waitingTime="7.00" waitingCount="1" stopTime="0.00" timeLoss="21.16" rerouteNo="0" devices="tripinfo_f_0_9.0 emissions_f_0_9.0" vType="DEFAULT_VEHTYPE" speedFactor="0.94" vaporized="">
        <emissions CO_abs="4835.888892" CO2_abs="343045.292705" HC_abs="29.321425" PMx_abs="4.886480" NOx_abs="129.998440" fuel_abs="109416.885496" electricity_abs="0"/>
    </tripinfo>
    <tripinfo id="f_0_3.0" depart="22.00" departLane="C9C8_0" departPos="5.10" departSpeed="0.00" departDelay="0.00" arrival="136.00" arrivalLane="C7C6_0" arrivalPos="492.80" arrivalSpeed="13.11" duration="114.00" routeLength="1494.90" waitingTime="0.00" waitingCount="0" stopTime="0.00" timeLoss="7.97" rerouteNo="0" devices="tripinfo_f_0_3.0 emissions_f_0_3.0" vType="DEFAULT_VEHTYPE" speedFactor="1.02" vaporized="">
        <emissions CO_abs="2575.529866" CO2_abs="289389.468374" HC_abs="17.646144" PMx_abs="3.906210" NOx_abs="106.939652" fuel_abs="92302.260498" electricity_abs="0"/>
    </tripinfo>
    <tripinfo id="f_1_14.2" depart="11.00" departLane="C2C3_0" departPos="5.10" departSpeed="0.00" departDelay="0.00" arrival="137.00" arrivalLane="C4C5_0" arrivalPos="492.80" arrivalSpeed="12.68" duration="126.00" routeLength="1494.90" waitingTime="3.00" waitingCount="1" stopTime="0.00" timeLoss="18.01" rerouteNo="0" devices="tripinfo_f_1_14.2 emissions_f_1_14.2" vType="DEFAULT_VEHTYPE" speedFactor="1.00" vaporized="">
        <emissions CO_abs="3929.385266" CO2_abs="324223.057068" HC_abs="24.754920" PMx_abs="4.546414" NOx_abs="121.725715" fuel_abs="103413.073750" electricity_abs="0"/>
    </tripinfo>
    <tripinfo id="f_1_20.1" depart="3.00" departLane="G2G3_0" departPos="5.10" departSpeed="0.00" departDelay="0.00" arrival="138.00" arrivalLane="G4G5_0" arrivalPos="492.80" arrivalSpeed="12.68" duration="135.00" routeLength="1494.90" waitingTime="4.00" waitingCount="1" stopTime="0.00" timeLoss="19.97" rerouteNo="0" devices="tripinfo_f_1_20.1 emissions_f_1_20.1" vType="DEFAULT_VEHTYPE" speedFactor="0.94" vaporized="">
        <emissions CO_abs="4526.627646" CO2_abs="342623.466253" HC_abs="28.121974" PMx_abs="4.815646" NOx_abs="130.010609" fuel_abs="109282.201878" electricity_abs="0"/>
    </tripinfo>
    <tripinfo id="f_0_9.1" depart="12.00" departLane="G9G8_0" departPos="5.10" departSpeed="0.00" departDelay="0.00" arrival="138.00" arrivalLane="G7G6_0" arrivalPos="492.80" arrivalSpeed="15.86" duration="126.00" routeLength="1494.90" waitingTime="7.00" waitingCount="1" stopTime="0.00" timeLoss="33.28" rerouteNo="0" devices="tripinfo_f_0_9.1 emissions_f_0_9.1" vType="DEFAULT_VEHTYPE" speedFactor="1.17" vaporized="">
        <emissions CO_abs="4815.240540" CO2_abs="353670.107800" HC_abs="29.405880" PMx_abs="5.424916" NOx_abs="135.766937" fuel_abs="112805.166757" electricity_abs="0"/>
    </tripinfo>
    <tripinfo id="f_1_14.3" depart="14.00" departLane="C2C3_0" departPos="5.10" departSpeed="0.00" departDelay="2.00" arrival="139.00" arrivalLane="C4C5_0" arrivalPos="492.80" arrivalSpeed="14.06" duration="125.00" routeLength="1494.90" waitingTime="3.00" waitingCount="1" stopTime="0.00" timeLoss="18.81" rerouteNo="0" devices="tripinfo_f_1_14.3 emissions_f_1_14.3" vType="DEFAULT_VEHTYPE" speedFactor="1.02" vaporized="">
        <emissions CO_abs="3832.064800" CO2_abs="334287.854463" HC_abs="24.509494" PMx_abs="4.781052" NOx_abs="126.210230" fuel_abs="106623.047478" electricity_abs="0"/>
    </tripinfo>
    <tripinfo id="f_1_15.2" depart="16.00" departLane="C6C5_0" departPos="5.10" departSpeed="0.00" departDelay="1.00" arrival="139.00" arrivalLane="C4C3_0" arrivalPos="491.30" arrivalSpeed="12.33" duration="123.00" routeLength="1493.50" waitingTime="0.00" waitingCount="0" stopTime="0.00" timeLoss="11.37" rerouteNo="0" devices="tripinfo_f_1_15.2 emissions_f_1_15.2" vType="DEFAULT_VEHTYPE" speedFactor="0.97" vaporized="">
        <emissions CO_abs="2863.612399" CO2_abs="305918.398479" HC_abs="19.695371" PMx_abs="4.034719" NOx_abs="113.516947" fuel_abs="97574.459759" electricity_abs="0"/>
    </tripinfo>
    <tripinfo id="f_1_20.2" depart="7.00" departLane="G2G3_0" departPos="5.10" departSpeed="0.00" departDelay="0.00" arrival="140.00" arrivalLane="G4G5_0" arrivalPos="492.80" arrivalSpeed="15.89" duration="133.00" routeLength="1494.90" waitingTime="4.00" waitingCount="1" stopTime="0.00" timeLoss="41.20" rerouteNo="0" devices="tripinfo_f_1_20.2 emissions_f_1_20.2" vType="DEFAULT_VEHTYPE" speedFactor="1.18" vaporized="">
        <emissions CO_abs="5417.467881" CO2_abs="387737.723218" HC_abs="33.588134" PMx_abs="6.383242" NOx_abs="153.904302" fuel_abs="123670.813728" electricity_abs="0"/>
    </tripinfo>
    <tripinfo id="f_0_9.2" depart="17.00" departLane="G9G8_0" departPos="5.10" departSpeed="0.00" departDelay="0.00" arrival="140.00" arrivalLane="G7G6_0" arrivalPos="492.80" arrivalSpeed="13.41" duration="123.00" routeLength="1494.90" waitingTime="0.00" waitingCount="0" stopTime="0.00" timeLoss="11.77" rerouteNo="0" devices="tripinfo_f_0_9.2 emissions_f_0_9.2" vType="DEFAULT_VEHTYPE" speedFactor="0.97" vaporized="">
        <emissions CO_abs="2961.423508" CO2_abs="316491.761170" HC_abs="20.380294" PMx_abs="4.229044" NOx_abs="118.038207" fuel_abs="100946.818056" electricity_abs="0"/>
    </tripinfo>
    <tripinfo id="f_1_21.1" depart="6.00" departLane="G6G5_0" departPos="5.10" departSpeed="0.00" departDelay="1.00" arrival="141.00" arrivalLane="G4G3_0" arrivalPos="491.30" arrivalSpeed="11.77" duration="135.00" routeLength="1493.50" waitingTime="0.00" waitingCount="0" stopTime="0.00" timeLoss="11.37" rerouteNo="0" devices="tripinfo_f_1_21.1 emissions_f_1_21.1" vType="DEFAULT_VEHTYPE" speedFactor="0.87" vaporized="">
        <emissions CO_abs="3417.184271" CO2_abs="309826.227078" HC_abs="22.405706" PMx_abs="4.114792" NOx_abs="116.327467" fuel_abs="98821.138317" electricity_abs="0"/>
    </tripinfo>
    <tripinfo id="f_0_11.2" depart="18.00" departLane="H9H8_0" departPos="5.10" departSpeed="0.00" departDelay="0.00" arrival="141.00" arrivalLane="H7H6_0" arrivalPos="492.80" arrivalSpeed="13.43" duration="123.00" routeLength="1494.90" waitingTime="6.00" waitingCount="1" stopTime="0.00" timeLoss="20.33" rerouteNo="0" devices="tripinfo_f_0_11.2 emissions_f_0_11.2" vType="DEFAULT_VEHTYPE" speedFactor="1.06" vaporized="">
        <emissions CO_abs="4701.422020" CO2_abs="338984.154263" HC_abs="28.543024" PMx_abs="5.278568" NOx_abs="130.633732" fuel_abs="108120.970425" electricity_abs="0"/>
    </tripinfo>
    <tripinfo id="f_1_20.3" depart="10.00" departLane="G2G3_0" departPos="5.10" departSpeed="0.00" departDelay="1.00" arrival="142.00" arrivalLane="G4G5_0" arrivalPos="492.80" arrivalSpeed="15.70" duration="132.00" routeLength="1494.90" waitingTime="3.00" waitingCount="1" stopTime="0.00" timeLoss="39.98" rerouteNo="0" devices="tripinfo_f_1_20.3 emissions_f_1_20.3" vType="DEFAULT_VEHTYPE" speedFactor="1.18" vaporized="">
        <emissions CO_abs="5932.487981" CO2_abs="406810.219832" HC_abs="36.303913" PMx_abs="7.087005" NOx_abs="164.305843" fuel_abs="129753.750554" electricity_abs="0"/>
    </tripinfo>
    <tripinfo id="f_1_14.4" depart="18.00" departLane="C2C3_0" departPos="5.10" departSpeed="0.00" departDelay="0.00" arrival="142.00" arrivalLane="C4C5_0" arrivalPos="492.80" arrivalSpeed="13.37" duration="124.00" routeLength="1494.90" waitingTime="0.00" waitingCount="0" stopTime="0.00" timeLoss="14.13" rerouteNo="0" devices="tripinfo_f_1_14.4 emissions_f_1_14.4" vType="DEFAULT_VEHTYPE" speedFactor="0.98" vaporized="">
        <emissions CO_abs="3228.428894" CO2_abs="315783.526335" HC_abs="21.315463" PMx_abs="4.246523" NOx_abs="117.373857" fuel_abs="100721.062763" electricity_abs="0"/>
    </tripinfo>
    <tripinfo id="f_0_9.3" depart="20.00" departLane="G9G8_0" departPos="5.10" departSpeed="0.00" departDelay="0.00" arrival="142.00" arrivalLane="G7G6_0" arrivalPos="492.80" arrivalSpeed="13.45" duration="122.00" routeLength="1494.90" waitingTime="0.00" waitingCount="0" stopTime="0.00" timeLoss="10.85" rerouteNo="0" devices="tripinfo_f_0_9.3 emissions_f_0_9.3" vType="DEFAULT_VEHTYPE" speedFactor="0.98" vaporized="">
        <emissions CO_abs="2753.217440" CO2_abs="307045.951119" HC_abs="19.288566" PMx_abs="4.057077" NOx_abs="114.067674" fuel_abs="97934.019201" electricity_abs="0"/>
    </tripinfo>
    <tripinfo id="f_1_21.2" depart="9.00" departLane="G6G5_0" departPos="5.10" departSpeed="0.00" departDelay="3.00" arrival="143.00" arrivalLane="G4G3_0" arrivalPos="491.30" arrivalSpeed="12.55" duration="134.00" routeLength="1493.50" waitingTime="0.00" waitingCount="0" stopTime="0.00" timeLoss="20.02" rerouteNo="0" devices="tripinfo_f_1_21.2 emissions_f_1_21.2" vType="DEFAULT_VEHTYPE" speedFactor="0.95" vaporized="">
        <emissions CO_abs="4389.758453" CO2_abs="353614.913951" HC_abs="28.049837" PMx_abs="5.471309" NOx_abs="138.589270" fuel_abs="112787.191145" electricity_abs="0"/>
    </tripinfo>
    <tripinfo id="f_1_20.4" depart="13.00" departLane="G2G3_0" departPos="5.10" departSpeed="0.00" departDelay="3.00" arrival="144.00" arrivalLane="G4G5_0" arrivalPos="492.80" arrivalSpeed="13.16" duration="131.00" routeLength="1494.90" waitingTime="3.00" waitingCount="1" stopTime="0.00" timeLoss="26.40" rerouteNo="0" devices="tripinfo_f_1_20.4 emissions_f_1_20.4" vType="DEFAULT_VEHTYPE" speedFactor="1.04" vaporized="">
        <emissions CO_abs="5276.276128" CO2_abs="372844.857199" HC_abs="32.475689" PMx_abs="6.149973" NOx_abs="147.736225" fuel_abs="118920.684249" electricity_abs="0"/>
    </tripinfo>
    <tripinfo id="f_1_14.5" depart="21.00" departLane="C2C3_0" departPos="5.10" departSpeed="0.00" departDelay="2.00" arrival="144.00" arrivalLane="C4C5_0" arrivalPos="492.80" arrivalSpeed="13.68" duration="123.00" routeLength="1494.90" waitingTime="0.00" waitingCount="0" stopTime="0.00" timeLoss="18.14" rerouteNo="0" devices="tripinfo_f_1_14.5 emissions_f_1_14.5" vType="DEFAULT_VEHTYPE" speedFactor="1.03" vaporized="">
        <emissions CO_abs="3628.604702" CO2_abs="330268.589738" HC_abs="23.567185" PMx_abs="4.778637" NOx_abs="125.433100" fuel_abs="105340.907679" electricity_abs="0"/>
    </tripinfo>
    <tripinfo id="f_1_20.5" depart="16.00" departLane="G2G3_0" departPos="5.10" departSpeed="0.00" departDelay="1.00" arrival="145.00" arrivalLane="G4G5_0" arrivalPos="492.80" arrivalSpeed="13.52" duration="129.00" routeLength="1494.90" waitingTime="3.00" waitingCount="1" stopTime="0.00" timeLoss="22.83" rerouteNo="0" devices="tripinfo_f_1_20.5 emissions_f_1_20.5" vType="DEFAULT_VEHTYPE" speedFactor="1.02" vaporized="">
        <emissions CO_abs="4676.923732" CO2_abs="353389.982414" HC_abs="29.024105" PMx_abs="5.411301" NOx_abs="136.550032" fuel_abs="112715.742454" electricity_abs="0"/>
    </tripinfo>
    <tripinfo id="f_1_21.3" depart="15.00" departLane="G6G5_0" departPos="5.10" departSpeed="0.00" departDelay="0.00" arrival="145.00" arrivalLane="G4G3_0" arrivalPos="491.30" arrivalSpeed="12.85" duration="130.00" routeLength="1493.50" waitingTime="0.00" waitingCount="0" stopTime="0.00" timeLoss="20.21" rerouteNo="0" devices="tripinfo_f_1_21.3 emissions_f_1_21.3" vType="DEFAULT_VEHTYPE" speedFactor="0.99" vaporized="">
        <emissions CO_abs="4502.761474" CO2_abs="365779.227002" HC_abs="28.707541" PMx_abs="5.802830" NOx_abs="143.806255" fuel_abs="116666.877112" electricity_abs="0"/>
    </tripinfo>
    <tripinfo id="f_1_22.0" depart="15.00" departLane="H2H3_0" departPos="5.10" departSpeed="0.00" departDelay="0.00" arrival="145.00" arrivalLane="H4H5_0" arrivalPos="492.80" arrivalSpeed="12.54" duration="130.00" routeLength="1494.90" waitingTime="2.00" waitingCount="1" stopTime="0.00" timeLoss="14.67" rerouteNo="0" devices="tripinfo_f_1_22.0 emissions_f_1_22.0" vType="DEFAULT_VEHTYPE" speedFactor="0.94" vaporized="">
        <emissions CO_abs="3903.494605" CO2_abs="319636.837990" HC_abs="24.833342" PMx_abs="4.662989" NOx_abs="122.486033" fuel_abs="101950.049379" electricity_abs="0"/>
    </tripinfo>
    <tripinfo id="f_1_16.2" depart="9.00" departLane="D2D3_0" departPos="5.10" departSpeed="0.00" departDelay="1.00" arrival="146.00" arrivalLane="D4D5_0" arrivalPos="492.80" arrivalSpeed="12.86" duration="137.00" routeLength="1494.90" waitingTime="12.00" waitingCount="1" stopTime="0.00" timeLoss="29.78" rerouteNo="0" devices="tripinfo_f_1_16.2 emissions_f_1_16.2" vType="DEFAULT_VEHTYPE" speedFactor="1.01" vaporized="">
        <emissions CO_abs="6003.153211" CO2_abs="368908.688256" HC_abs="35.372651" PMx_abs="5.821835" NOx_abs="144.070088" fuel_abs="117666.022570" electricity_abs="0"/>
    </tripinfo>
    <tripinfo id="f_1_21.4" depart="18.00" departLane="G6G5_0" departPos="5.10" departSpeed="0.00" departDelay="2.00" arrival="146.00" arrivalLane="G4G3_0" arrivalPos="491.30" arrivalSpeed="14.03" duration="128.00" routeLength="1493.50" waitingTime="0.00" waitingCount="0" stopTime="0.00" timeLoss="22.55" rerouteNo="0" devices="tripinfo_f_1_21.4 emissions_f_1_21.4" vType="DEFAULT_VEHTYPE" speedFactor="1.02" vaporized="">
        <emissions CO_abs="4282.135562" CO2_abs="363307.807452" HC_abs="27.502940" PMx_abs="5.574444" NOx_abs="141.349792" fuel_abs="115878.704959" electricity_abs="0"/>
    </tripinfo>
    <tripinfo id="f_1_20.6" depart="19.00" departLane="G2G3_0" departPos="5.10" departSpeed="0.00" departDelay="3.00" arrival="147.00" arrivalLane="G4G5_0" arrivalPos="492.80" arrivalSpeed="14.04" duration="128.00" routeLength="1494.90" waitingTime="1.00" waitingCount="1" stopTime="0.00" timeLoss="23.97" rerouteNo="0" devices="tripinfo_f_1_20.6 emissions_f_1_20.6" vType="DEFAULT_VEHTYPE" speedFactor="1.04" vaporized="">
        <emissions CO_abs="4905.849708" CO2_abs="368021.158449" HC_abs="30.429476" PMx_abs="5.775898" NOx_abs="143.154958" fuel_abs="117382.300396" electricity_abs="0"/>
    </tripinfo>
    <tripinfo id="f_1_22.1" depart="23.00" departLane="H2H3_0" departPos="5.10" departSpeed="0.00" departDelay="0.00" arrival="147.00" arrivalLane="H4H5_0" arrivalPos="492.80" arrivalSpeed="15.06" duration="124.00" routeLength="1494.90" waitingTime="0.00" waitingCount="0" stopTime="0.00" timeLoss="24.52" rerouteNo="0" devices="tripinfo_f_1_22.1 emissions_f_1_22.1" vType="DEFAULT_VEHTYPE" speedFactor="1.09" vaporized="">
        <emissions CO_abs="4526.607316" CO2_abs="358325.125685" HC_abs="28.450355" PMx_abs="5.764302" NOx_abs="140.107834" fuel_abs="114289.380606" electricity_abs="0"/>
    </tripinfo>
    <tripinfo id="f_0_8.1" depart="12.00" departLane="G5G6_0" departPos="5.10" departSpeed="0.00" departDelay="0.00" arrival="148.00" arrivalLane="G7G8_0" arrivalPos="491.30" arrivalSpeed="11.14" duration="136.00" routeLength="1493.50" waitingTime="0.00" waitingCount="0" stopTime="0.00" timeLoss="9.39" rerouteNo="0" devices="tripinfo_f_0_8.1 emissions_f_0_8.1" vType="DEFAULT_VEHTYPE" speedFactor="0.85" vaporized="">
        <emissions CO_abs="3025.857736" CO2_abs="297533.400473" HC_abs="20.455810" PMx_abs="3.627877" NOx_abs="109.711228" fuel_abs="94900.470022" electricity_abs="0"/>
    </tripinfo>
    <tripinfo id="f_1_16.3" depart="24.00" departLane="D2D3_0" departPos="5.10" departSpeed="0.00" departDelay="0.00" arrival="148.00" arrivalLane="D4D5_0" arrivalPos="492.80" arrivalSpeed="14.58" duration="124.00" routeLength="1494.90" waitingTime="9.00" waitingCount="1" stopTime="0.00" timeLoss="25.37" rerouteNo="0" devices="tripinfo_f_1_16.3 emissions_f_1_16.3" vType="DEFAULT_VEHTYPE" speedFactor="1.10" vaporized="">
        <emissions CO_abs="4722.979979" CO2_abs="343111.276504" HC_abs="28.644159" PMx_abs="5.142561" NOx_abs="129.987368" fuel_abs="109437.547356" electricity_abs="0"/>
    </tripinfo>
    <tripinfo id="f_1_17.1" depart="7.00" departLane="D6D5_0" departPos="5.10" departSpeed="0.00" departDelay="0.00" arrival="149.00" arrivalLane="D4D3_0" arrivalPos="491.30" arrivalSpeed="12.91" duration="142.00" routeLength="1493.50" waitingTime="12.00" waitingCount="1" stopTime="0.00" timeLoss="26.26" rerouteNo="0" devices="tripinfo_f_1_17.1 emissions_f_1_17.1" vType="DEFAULT_VEHTYPE" speedFactor="0.93" vaporized="">
        <emissions CO_abs="5652.070933" CO2_abs="352721.126050" HC_abs="33.447597" PMx_abs="5.223341" NOx_abs="135.561618" fuel_abs="112503.247263" electricity_abs="0"/>
    </tripinfo>
    <tripinfo id="f_1_20.7" depart="22.00" departLane="G2G3_0" departPos="5.10" departSpeed="0.00" departDelay="3.00" arrival="149.00" arrivalLane="G4G5_0" arrivalPos="492.80" arrivalSpeed="13.72" duration="127.00" routeLength="1494.90" waitingTime="0.00" waitingCount="0" stopTime="0.00" timeLoss="20.34" rerouteNo="0" devices="tripinfo_f_1_20.7 emissions_f_1_20.7" vType="DEFAULT_VEHTYPE" speedFactor="1.02" vaporized="">
        <emissions CO_abs="4501.483275" CO2_abs="353666.615080" HC_abs="28.339040" PMx_abs="5.505015" NOx_abs="137.365219" fuel_abs="112803.768468" electricity_abs="0"/>
    </tripinfo>
    <tripinfo id="f_0_8.2" depart="22.00" departLane="G5G6_0" departPos="5.10" departSpeed="0.00" departDelay="0.00" arrival="149.00" arrivalLane="G7G8_0" arrivalPos="491.30" arrivalSpeed="13.07" duration="127.00" routeLength="1493.50" waitingTime="0.00" waitingCount="0" stopTime="0.00" timeLoss="20.08" rerouteNo="0" devices="tripinfo_f_0_8.2 emissions_f_0_8.2" vType="DEFAULT_VEHTYPE" speedFactor="1.01" vaporized="">
        <emissions CO_abs="3441.938405" CO2_abs="318297.576592" HC_abs="22.592987" PMx_abs="4.503214" NOx_abs="120.841989" fuel_abs="101522.749786" electricity_abs="0"/>
    </tripinfo>
    <tripinfo id="f_1_17.2" depart="10.00" departLane="D6D5_0" departPos="5.10" departSpeed="0.00" departDelay="1.00" arrival="151.00" arrivalLane="D4D3_0" arrivalPos="491.30" arrivalSpeed="12.49" duration="141.00" routeLength="1493.50" waitingTime="11.00" waitingCount="1" stopTime="0.00" timeLoss="30.06" rerouteNo="0" devices="tripinfo_f_1_17.2 emissions_f_1_17.2" vType="DEFAULT_VEHTYPE" speedFactor="0.97" vaporized="">
        <emissions CO_abs="6261.349550" CO2_abs="375146.678739" HC_abs="37.138589" PMx_abs="6.325255" NOx_abs="150.180609" fuel_abs="119655.290346" electricity_abs="0"/>
    </tripinfo>
    <tripinfo id="f_1_17.3" depart="18.00" departLane="D6D5_0" departPos="5.10" departSpeed="0.00" departDelay="0.00" arrival="153.00" arrivalLane="D4D3_0" arrivalPos="491.30" arrivalSpeed="13.22" duration="135.00" routeLength="1493.50" waitingTime="10.00" waitingCount="1" stopTime="0.00" timeLoss="30.10" rerouteNo="0" devices="tripinfo_f_1_17.3 emissions_f_1_17.3" vType="DEFAULT_VEHTYPE" speedFactor="1.03" vaporized="">
        <emissions CO_abs="5922.556310" CO2_abs="373079.962690" HC_abs="34.820711" PMx_abs="5.857461" NOx_abs="144.765469" fuel_abs="118996.411304" electricity_abs="0"/>
    </tripinfo>
    <tripinfo id="f_1_17.4" depart="24.00" departLane="D6D5_0" departPos="5.10" departSpeed="0.00" departDelay="0.00" arrival="154.00" arrivalLane="D4D3_0" arrivalPos="491.30" arrivalSpeed="13.89" duration="130.00" routeLength="1493.50" waitingTime="10.00" waitingCount="1" stopTime="0.00" timeLoss="28.95" rerouteNo="0" devices="tripinfo_f_1_17.4 emissions_f_1_17.4" vType="DEFAULT_VEHTYPE" speedFactor="1.06" vaporized="">
        <emissions CO_abs="5480.813130" CO2_abs="370052.630729" HC_abs="32.726399" PMx_abs="5.783411" NOx_abs="143.078077" fuel_abs="118030.611609" electricity_abs="0"/>
    </tripinfo>
    <tripinfo id="f_0_6.0" depart="0.00" departLane="E7F7_0" departPos="5.10" departSpeed="0.00" departDelay="0.00" arrival="156.00" arrivalLane="H7I7_0" arrivalPos="491.30" arrivalSpeed="14.07" duration="156.00" routeLength="1993.50" waitingTime="5.00" waitingCount="1" stopTime="0.00" timeLoss="20.55" rerouteNo="0" devices="tripinfo_f_0_6.0 emissions_f_0_6.0" vType="DEFAULT_VEHTYPE" speedFactor="1.06" vaporized="">
        <emissions CO_abs="4435.505714" CO2_abs="414760.063844" HC_abs="28.690111" PMx_abs="5.767540" NOx_abs="153.819359" fuel_abs="132290.170967" electricity_abs="0"/>
    </tripinfo>
    <tripinfo id="f_1_12.0" depart="2.00" departLane="A4B4_0" departPos="5.10" departSpeed="0.00" departDelay="0.00" arrival="158.00" arrivalLane="D4E4_0" arrivalPos="492.80" arrivalSpeed="14.59" duration="156.00" routeLength="1994.90" waitingTime="10.00" waitingCount="1" stopTime="0.00" timeLoss="23.49" rerouteNo="0" devices="tripinfo_f_1_12.0 emissions_f_1_12.0" vType="DEFAULT_VEHTYPE" speedFactor="1.09" vaporized="">
        <emissions CO_abs="5454.762911" CO2_abs="432820.444603" HC_abs="33.972556" PMx_abs="6.576508" NOx_abs="164.291089" fuel_abs="138050.511488" electricity_abs="0"/>
    </tripinfo>