<?xml version="1.0" encoding="UTF-8"?>

<!-- generated on 2024-08-22 13:49:56 by Eclipse SUMO sumo Version 1.17.0
<configuration xmlns:xsi="http://www.w3.org/2001/XMLSchema-instance" xsi:noNamespaceSchemaLocation="http://sumo.dlr.de/xsd/sumoConfiguration.xsd">

    <input>
        <net-file value="double_neat.net.xml"/>
        <route-files value="double_1.rou.xml"/>
    </input>

    <output>
        <tripinfo-output value="emissions_test\z401_pop_200_data_VehicleNumberAndHaltingNumber_gen_300_1emissionsdouble.xml"/>
    </output>

    <processing>
        <time-to-teleport value="-1"/>
    </processing>

    <report>
        <no-warnings value="true"/>
    </report>

    <emissions>
        <device.emissions.probability value="1.0"/>
    </emissions>

    <traci_server>
        <remote-port value="58413"/>
    </traci_server>

</configuration>
-->

<tripinfos xmlns:xsi="http://www.w3.org/2001/XMLSchema-instance" xsi:noNamespaceSchemaLocation="http://sumo.dlr.de/xsd/tripinfo_file.xsd">
    <tripinfo id="f_0_16.0" depart="1.00" departLane="D2D3_0" departPos="5.10" departSpeed="0.00" departDelay="0.00" arrival="109.00" arrivalLane="D4D5_0" arrivalPos="492.80" arrivalSpeed="14.13" duration="108.00" routeLength="1494.90" waitingTime="0.00" waitingCount="0" stopTime="0.00" timeLoss="8.35" rerouteNo="0" devices="tripinfo_f_0_16.0 emissions_f_0_16.0" vType="DEFAULT_VEHTYPE" speedFactor="1.08" vaporized="">
        <emissions CO_abs="2247.779204" CO2_abs="283294.879663" HC_abs="15.802534" PMx_abs="3.698175" NOx_abs="102.718500" fuel_abs="90358.349076" electricity_abs="0"/>
    </tripinfo>
    <tripinfo id="f_0_17.0" depart="0.00" departLane="D6D5_0" departPos="5.10" departSpeed="0.00" departDelay="0.00" arrival="123.00" arrivalLane="D4D3_0" arrivalPos="491.30" arrivalSpeed="12.84" duration="123.00" routeLength="1493.50" waitingTime="0.00" waitingCount="0" stopTime="0.00" timeLoss="7.99" rerouteNo="0" devices="tripinfo_f_0_17.0 emissions_f_0_17.0" vType="DEFAULT_VEHTYPE" speedFactor="0.94" vaporized="">
        <emissions CO_abs="2832.017298" CO2_abs="294374.254707" HC_abs="19.368472" PMx_abs="4.006895" NOx_abs="110.307934" fuel_abs="93892.294442" electricity_abs="0"/>
    </tripinfo>
    <tripinfo id="f_0_8.0" depart="0.00" departLane="G5G6_0" departPos="5.10" departSpeed="0.00" departDelay="0.00" arrival="132.00" arrivalLane="G7G8_0" arrivalPos="491.30" arrivalSpeed="13.60" duration="132.00" routeLength="1493.50" waitingTime="18.00" waitingCount="1" stopTime="0.00" timeLoss="29.98" rerouteNo="0" devices="tripinfo_f_0_8.0 emissions_f_0_8.0" vType="DEFAULT_VEHTYPE" speedFactor="1.06" vaporized="">
        <emissions CO_abs="6251.920519" CO2_abs="367822.798946" HC_abs="36.445892" PMx_abs="5.963840" NOx_abs="143.704066" fuel_abs="117319.697353" electricity_abs="0"/>
    </tripinfo>
    <tripinfo id="f_0_9.0" depart="2.00" departLane="G9G8_0" departPos="5.10" departSpeed="0.00" departDelay="0.00" arrival="133.00" arrivalLane="G7G6_0" arrivalPos="492.80" arrivalSpeed="13.94" duration="131.00" routeLength="1494.90" waitingTime="13.00" waitingCount="1" stopTime="0.00" timeLoss="26.01" rerouteNo="0" devices="tripinfo_f_0_9.0 emissions_f_0_9.0" vType="DEFAULT_VEHTYPE" speedFactor="1.03" vaporized="">
        <emissions CO_abs="5149.587783" CO2_abs="342169.502454" HC_abs="30.637178" PMx_abs="5.108330" NOx_abs="130.160370" fuel_abs="109137.487563" electricity_abs="0"/>
    </tripinfo>
    <tripinfo id="f_0_8.1" depart="3.00" departLane="G5G6_0" departPos="5.10" departSpeed="0.00" departDelay="0.00" arrival="134.00" arrivalLane="G7G8_0" arrivalPos="491.30" arrivalSpeed="13.35" duration="131.00" routeLength="1493.50" waitingTime="13.00" waitingCount="1" stopTime="0.00" timeLoss="27.88" rerouteNo="0" devices="tripinfo_f_0_8.1 emissions_f_0_8.1" vType="DEFAULT_VEHTYPE" speedFactor="1.05" vaporized="">
        <emissions CO_abs="5664.133347" CO2_abs="355075.945116" HC_abs="33.178184" PMx_abs="5.484530" NOx_abs="136.208867" fuel_abs="113254.065337" electricity_abs="0"/>
    </tripinfo>
    <tripinfo id="f_0_8.2" depart="6.00" departLane="G5G6_0" departPos="5.10" departSpeed="0.00" departDelay="0.00" arrival="136.00" arrivalLane="G7G8_0" arrivalPos="491.30" arrivalSpeed="13.50" duration="130.00" routeLength="1493.50" waitingTime="11.00" waitingCount="1" stopTime="0.00" timeLoss="24.86" rerouteNo="0" devices="tripinfo_f_0_8.2 emissions_f_0_8.2" vType="DEFAULT_VEHTYPE" speedFactor="1.03" vaporized="">
        <emissions CO_abs="5153.545556" CO2_abs="344512.282674" HC_abs="30.850567" PMx_abs="5.149089" NOx_abs="130.909390" fuel_abs="109884.735605" electricity_abs="0"/>
    </tripinfo>
    <tripinfo id="f_0_9.1" depart="5.00" departLane="G9G8_0" departPos="5.10" departSpeed="0.00" departDelay="0.00" arrival="142.00" arrivalLane="G7G6_0" arrivalPos="492.80" arrivalSpeed="11.86" duration="137.00" routeLength="1494.90" waitingTime="0.00" waitingCount="0" stopTime="0.00" timeLoss="11.01" rerouteNo="0" devices="tripinfo_f_0_9.1 emissions_f_0_9.1" vType="DEFAULT_VEHTYPE" speedFactor="0.86" vaporized="">
        <emissions CO_abs="3505.972046" CO2_abs="305877.752554" HC_abs="22.886334" PMx_abs="4.166519" NOx_abs="116.090578" fuel_abs="97561.669317" electricity_abs="0"/>
    </tripinfo>
    <tripinfo id="f_0_8.3" depart="9.00" departLane="G5G6_0" departPos="5.10" departSpeed="0.00" departDelay="2.00" arrival="142.00" arrivalLane="G7G8_0" arrivalPos="491.30" arrivalSpeed="12.75" duration="133.00" routeLength="1493.50" waitingTime="2.00" waitingCount="1" stopTime="0.00" timeLoss="16.58" rerouteNo="0" devices="tripinfo_f_0_8.3 emissions_f_0_8.3" vType="DEFAULT_VEHTYPE" speedFactor="0.93" vaporized="">
        <emissions CO_abs="4057.669658" CO2_abs="334370.890695" HC_abs="25.822609" PMx_abs="4.653060" NOx_abs="126.579503" fuel_abs="106649.810153" electricity_abs="0"/>
    </tripinfo>
    <tripinfo id="f_0_9.2" depart="8.00" departLane="G9G8_0" departPos="5.10" departSpeed="0.00" departDelay="2.00" arrival="144.00" arrivalLane="G7G6_0" arrivalPos="492.80" arrivalSpeed="14.15" duration="136.00" routeLength="1494.90" waitingTime="0.00" waitingCount="0" stopTime="0.00" timeLoss="32.50" rerouteNo="0" devices="tripinfo_f_0_9.2 emissions_f_0_9.2" vType="DEFAULT_VEHTYPE" speedFactor="1.05" vaporized="">
        <emissions CO_abs="4418.774371" CO2_abs="357837.012344" HC_abs="28.307956" PMx_abs="5.426364" NOx_abs="139.591284" fuel_abs="114133.972451" electricity_abs="0"/>
    </tripinfo>
    <tripinfo id="f_0_8.4" depart="12.00" departLane="G5G6_0" departPos="5.10" departSpeed="0.00" departDelay="2.00" arrival="144.00" arrivalLane="G7G8_0" arrivalPos="491.30" arrivalSpeed="14.10" duration="132.00" routeLength="1493.50" waitingTime="1.00" waitingCount="1" stopTime="0.00" timeLoss="25.66" rerouteNo="0" devices="tripinfo_f_0_8.4 emissions_f_0_8.4" vType="DEFAULT_VEHTYPE" speedFactor="1.02" vaporized="">
        <emissions CO_abs="4870.533153" CO2_abs="366235.259204" HC_abs="30.309995" PMx_abs="5.817526" NOx_abs="143.746823" fuel_abs="116812.560626" electricity_abs="0"/>
    </tripinfo>
    <tripinfo id="f_0_9.3" depart="11.00" departLane="G9G8_0" departPos="5.10" departSpeed="0.00" departDelay="1.00" arrival="145.00" arrivalLane="G7G6_0" arrivalPos="492.80" arrivalSpeed="13.32" duration="134.00" routeLength="1494.90" waitingTime="0.00" waitingCount="0" stopTime="0.00" timeLoss="27.46" rerouteNo="0" devices="tripinfo_f_0_9.3 emissions_f_0_9.3" vType="DEFAULT_VEHTYPE" speedFactor="1.01" vaporized="">
        <emissions CO_abs="4553.302787" CO2_abs="361507.524532" HC_abs="28.951466" PMx_abs="5.674725" NOx_abs="142.281524" fuel_abs="115304.514504" electricity_abs="0"/>
    </tripinfo>
    <tripinfo id="f_0_9.4" depart="14.00" departLane="G9G8_0" departPos="5.10" departSpeed="0.00" departDelay="2.00" arrival="147.00" arrivalLane="G7G6_0" arrivalPos="492.80" arrivalSpeed="12.45" duration="133.00" routeLength="1494.90" waitingTime="0.00" waitingCount="0" stopTime="0.00" timeLoss="15.50" rerouteNo="0" devices="tripinfo_f_0_9.4 emissions_f_0_9.4" vType="DEFAULT_VEHTYPE" speedFactor="0.92" vaporized="">
        <emissions CO_abs="4093.568950" CO2_abs="346486.948564" HC_abs="26.469136" PMx_abs="5.146298" NOx_abs="134.106239" fuel_abs="110513.829798" electricity_abs="0"/>
    </tripinfo>
    <tripinfo id="f_0_8.5" depart="15.00" departLane="G5G6_0" departPos="5.10" departSpeed="0.00" departDelay="4.00" arrival="148.00" arrivalLane="G7G8_0" arrivalPos="491.30" arrivalSpeed="11.28" duration="133.00" routeLength="1493.50" waitingTime="0.00" waitingCount="0" stopTime="0.00" timeLoss="11.50" rerouteNo="0" devices="tripinfo_f_0_8.5 emissions_f_0_8.5" vType="DEFAULT_VEHTYPE" speedFactor="0.89" vaporized="">
        <emissions CO_abs="3347.830037" CO2_abs="307791.203110" HC_abs="22.151175" PMx_abs="4.177695" NOx_abs="116.268549" fuel_abs="98171.909669" electricity_abs="0"/>
    </tripinfo>
    <tripinfo id="f_0_9.5" depart="17.00" departLane="G9G8_0" departPos="5.10" departSpeed="0.00" departDelay="4.00" arrival="149.00" arrivalLane="G7G6_0" arrivalPos="492.80" arrivalSpeed="12.45" duration="132.00" routeLength="1494.90" waitingTime="0.00" waitingCount="0" stopTime="0.00" timeLoss="16.02" rerouteNo="0" devices="tripinfo_f_0_9.5 emissions_f_0_9.5" vType="DEFAULT_VEHTYPE" speedFactor="0.93" vaporized="">
        <emissions CO_abs="4023.464828" CO2_abs="354041.449153" HC_abs="26.173291" PMx_abs="5.111139" NOx_abs="135.719664" fuel_abs="112923.460172" electricity_abs="0"/>
    </tripinfo>
    <tripinfo id="f_0_17.1" depart="4.00" departLane="D6D5_0" departPos="5.10" departSpeed="0.00" departDelay="0.00" arrival="152.00" arrivalLane="D4D3_0" arrivalPos="491.30" arrivalSpeed="11.58" duration="148.00" routeLength="1493.50" waitingTime="11.00" waitingCount="1" stopTime="0.00" timeLoss="25.91" rerouteNo="0" devices="tripinfo_f_0_17.1 emissions_f_0_17.1" vType="DEFAULT_VEHTYPE" speedFactor="0.89" vaporized="">
        <emissions CO_abs="5615.592609" CO2_abs="359187.378763" HC_abs="33.640506" PMx_abs="5.065936" NOx_abs="137.092472" fuel_abs="114565.894920" electricity_abs="0"/>
    </tripinfo>
    <tripinfo id="f_0_17.2" depart="7.00" departLane="D6D5_0" departPos="5.10" departSpeed="0.00" departDelay="2.00" arrival="153.00" arrivalLane="D4D3_0" arrivalPos="491.30" arrivalSpeed="14.04" duration="146.00" routeLength="1493.50" waitingTime="10.00" waitingCount="1" stopTime="0.00" timeLoss="47.29" rerouteNo="0" devices="tripinfo_f_0_17.2 emissions_f_0_17.2" vType="DEFAULT_VEHTYPE" speedFactor="1.09" vaporized="">
        <emissions CO_abs="6603.523278" CO2_abs="394996.718833" HC_abs="39.030572" PMx_abs="6.534434" NOx_abs="157.678013" fuel_abs="125986.704099" electricity_abs="0"/>
    </tripinfo>
    <tripinfo id="f_0_16.1" depart="4.00" departLane="D2D3_0" departPos="5.10" departSpeed="0.00" departDelay="2.00" arrival="154.00" arrivalLane="D4D5_0" arrivalPos="492.80" arrivalSpeed="10.27" duration="150.00" routeLength="1494.90" waitingTime="5.00" waitingCount="1" stopTime="0.00" timeLoss="20.26" rerouteNo="0" devices="tripinfo_f_0_16.1 emissions_f_0_16.1" vType="DEFAULT_VEHTYPE" speedFactor="0.83" vaporized="">
        <emissions CO_abs="5115.495861" CO2_abs="345637.863970" HC_abs="31.175760" PMx_abs="4.795622" NOx_abs="132.140679" fuel_abs="110244.026986" electricity_abs="0"/>
    </tripinfo>
    <tripinfo id="f_0_17.3" depart="12.00" departLane="D6D5_0" departPos="5.10" departSpeed="0.00" departDelay="0.00" arrival="155.00" arrivalLane="D4D3_0" arrivalPos="491.30" arrivalSpeed="15.67" duration="143.00" routeLength="1493.50" waitingTime="9.00" waitingCount="1" stopTime="0.00" timeLoss="47.52" rerouteNo="0" devices="tripinfo_f_0_17.3 emissions_f_0_17.3" vType="DEFAULT_VEHTYPE" speedFactor="1.13" vaporized="">
        <emissions CO_abs="7012.284842" CO2_abs="422323.055669" HC_abs="41.433594" PMx_abs="7.045295" NOx_abs="168.487205" fuel_abs="134702.522098" electricity_abs="0"/>
    </tripinfo>
    <tripinfo id="f_0_16.2" depart="7.00" departLane="D2D3_0" departPos="5.10" departSpeed="0.00" departDelay="0.00" arrival="156.00" arrivalLane="D4D5_0" arrivalPos="492.80" arrivalSpeed="11.73" duration="149.00" routeLength="1494.90" waitingTime="3.00" waitingCount="1" stopTime="0.00" timeLoss="26.05" rerouteNo="0" devices="tripinfo_f_0_16.2 emissions_f_0_16.2" vType="DEFAULT_VEHTYPE" speedFactor="0.88" vaporized="">
        <emissions CO_abs="5461.064299" CO2_abs="362635.953885" HC_abs="33.145805" PMx_abs="5.412351" NOx_abs="141.280377" fuel_abs="115665.308419" electricity_abs="0"/>
    </tripinfo>
    <tripinfo id="f_0_17.4" depart="22.00" departLane="D6D5_0" departPos="5.10" departSpeed="0.00" departDelay="0.00" arrival="157.00" arrivalLane="D4D3_0" arrivalPos="491.30" arrivalSpeed="16.31" duration="135.00" routeLength="1493.50" waitingTime="7.00" waitingCount="1" stopTime="0.00" timeLoss="43.13" rerouteNo="0" devices="tripinfo_f_0_17.4 emissions_f_0_17.4" vType="DEFAULT_VEHTYPE" speedFactor="1.18" vaporized="">
        <emissions CO_abs="6483.304168" CO2_abs="402342.254160" HC_abs="38.410767" PMx_abs="6.801835" NOx_abs="160.086853" fuel_abs="128329.301358" electricity_abs="0"/>
    </tripinfo>
    <tripinfo id="f_0_16.3" depart="10.00" departLane="D2D3_0" departPos="5.10" departSpeed="0.00" departDelay="1.00" arrival="158.00" arrivalLane="D4D5_0" arrivalPos="492.80" arrivalSpeed="12.59" duration="148.00" routeLength="1494.90" waitingTime="3.00" waitingCount="1" stopTime="0.00" timeLoss="32.43" rerouteNo="0" devices="tripinfo_f_0_16.3 emissions_f_0_16.3" vType="DEFAULT_VEHTYPE" speedFactor="0.94" vaporized="">
        <emissions CO_abs="5796.130231" CO2_abs="381628.788459" HC_abs="35.137411" PMx_abs="6.076794" NOx_abs="151.258078" fuel_abs="121722.793073" electricity_abs="0"/>
    </tripinfo>
    <tripinfo id="f_0_17.5" depart="25.00" departLane="D6D5_0" departPos="5.10" departSpeed="0.00" departDelay="2.00" arrival="158.00" arrivalLane="D4D3_0" arrivalPos="491.30" arrivalSpeed="14.52" duration="133.00" routeLength="1493.50" waitingTime="7.00" waitingCount="1" stopTime="0.00" timeLoss="35.45" rerouteNo="0" devices="tripinfo_f_0_17.5 emissions_f_0_17.5" vType="DEFAULT_VEHTYPE" speedFactor="1.10" vaporized="">
        <emissions CO_abs="6083.504239" CO2_abs="382962.659008" HC_abs="36.055591" PMx_abs="6.225765" NOx_abs="150.366683" fuel_abs="122148.312434" electricity_abs="0"/>
    </tripinfo>
    <tripinfo id="f_0_16.4" depart="13.00" departLane="D2D3_0" departPos="5.10" departSpeed="0.00" departDelay="1.00" arrival="160.00" arrivalLane="D4D5_0" arrivalPos="492.80" arrivalSpeed="12.06" duration="147.00" routeLength="1494.90" waitingTime="3.00" waitingCount="1" stopTime="0.00" timeLoss="32.78" rerouteNo="0" devices="tripinfo_f_0_16.4 emissions_f_0_16.4" vType="DEFAULT_VEHTYPE" speedFactor="0.95" vaporized="">
        <emissions CO_abs="5817.343270" CO2_abs="381890.994331" HC_abs="35.177702" PMx_abs="6.075665" NOx_abs="150.953069" fuel_abs="121806.465894" electricity_abs="0"/>
    </tripinfo>
    <tripinfo id="f_0_16.5" depart="16.00" departLane="D2D3_0" departPos="5.10" departSpeed="0.00" departDelay="1.00" arrival="161.00" arrivalLane="D4D5_0" arrivalPos="492.80" arrivalSpeed="13.77" duration="145.00" routeLength="1494.90" waitingTime="4.00" waitingCount="1" stopTime="0.00" timeLoss="51.64" rerouteNo="0" devices="tripinfo_f_0_16.5 emissions_f_0_16.5" vType="DEFAULT_VEHTYPE" speedFactor="1.15" vaporized="">
        <emissions CO_abs="6766.101184" CO2_abs="429515.463353" HC_abs="40.780735" PMx_abs="7.473245" NOx_abs="174.596062" fuel_abs="136995.949473" electricity_abs="0"/>
    </tripinfo>
    <tripinfo id="f_0_9.6" depart="20.00" departLane="G9G8_0" departPos="5.10" departSpeed="0.00" departDelay="1.00" arrival="164.00" arrivalLane="G7G6_0" arrivalPos="492.80" arrivalSpeed="12.73" duration="144.00" routeLength="1494.90" waitingTime="21.00" waitingCount="1" stopTime="0.00" timeLoss="35.62" rerouteNo="0" devices="tripinfo_f_0_9.6 emissions_f_0_9.6" vType="DEFAULT_VEHTYPE" speedFactor="0.99" vaporized="">
        <emissions CO_abs="6926.753075" CO2_abs="378198.671767" HC_abs="39.656875" PMx_abs="5.918460" NOx_abs="146.799090" fuel_abs="120629.697892" electricity_abs="0"/>
    </tripinfo>
    <tripinfo id="f_0_9.7" depart="25.00" departLane="G9G8_0" departPos="5.10" departSpeed="0.00" departDelay="0.00" arrival="166.00" arrivalLane="G7G6_0" arrivalPos="492.80" arrivalSpeed="13.54" duration="141.00" routeLength="1494.90" waitingTime="20.00" waitingCount="1" stopTime="0.00" timeLoss="36.10" rerouteNo="0" devices="tripinfo_f_0_9.7 emissions_f_0_9.7" vType="DEFAULT_VEHTYPE" speedFactor="1.03" vaporized="">
        <emissions CO_abs="6862.349068" CO2_abs="385381.829955" HC_abs="39.759872" PMx_abs="6.180658" NOx_abs="150.704267" fuel_abs="122920.542783" electricity_abs="0"/>
    </tripinfo>
    <tripinfo id="f_0_9.8" depart="28.00" departLane="G9G8_0" departPos="5.10" departSpeed="0.00" departDelay="0.00" arrival="168.00" arrivalLane="G7G6_0" arrivalPos="492.80" arrivalSpeed="13.91" duration="140.00" routeLength="1494.90" waitingTime="18.00" waitingCount="1" stopTime="0.00" timeLoss="35.61" rerouteNo="0" devices="tripinfo_f_0_9.8 emissions_f_0_9.8" vType="DEFAULT_VEHTYPE" speedFactor="1.04" vaporized="">
        <emissions CO_abs="7032.527161" CO2_abs="397262.020974" HC_abs="40.817033" PMx_abs="6.533174" NOx_abs="156.648872" fuel_abs="126709.592192" electricity_abs="0"/>
    </tripinfo>
    <tripinfo id="f_0_0.0" depart="5.00" departLane="A7B7_0" departPos="5.10" departSpeed="0.00" departDelay="0.00" arrival="169.00" arrivalLane="D7E7_0" arrivalPos="492.80" arrivalSpeed="12.55" duration="164.00" routeLength="1994.90" waitingTime="0.00" waitingCount="0" stopTime="0.00" timeLoss="10.42" rerouteNo="0" devices="tripinfo_f_0_0.0 emissions_f_0_0.0" vType="DEFAULT_VEHTYPE" speedFactor="0.94" vaporized="">
        <emissions CO_abs="3265.807892" CO2_abs="376100.469875" HC_abs="22.790347" PMx_abs="4.714074" NOx_abs="137.661381" fuel_abs="119959.568722" electricity_abs="0"/>
    </tripinfo>
    <tripinfo id="f_0_0.1" depart="8.00" departLane="A7B7_0" departPos="5.10" departSpeed="0.00" departDelay="1.00" arrival="171.00" arrivalLane="D7E7_0" arrivalPos="492.80" arrivalSpeed="14.86" duration="163.00" routeLength="1994.90" waitingTime="0.00" waitingCount="0" stopTime="0.00" timeLoss="34.23" rerouteNo="0" devices="tripinfo_f_0_0.1 emissions_f_0_0.1" vType="DEFAULT_VEHTYPE" speedFactor="1.12" vaporized="">
        <emissions CO_abs="4803.713451" CO2_abs="447937.361282" HC_abs="32.054823" PMx_abs="6.830398" NOx_abs="173.546672" fuel_abs="142871.509459" electricity_abs="0"/>
    </tripinfo>
    <tripinfo id="f_0_8.6" depart="18.00" departLane="G5G6_0" departPos="5.10" departSpeed="0.00" departDelay="6.00" arrival="174.00" arrivalLane="G7G8_0" arrivalPos="491.30" arrivalSpeed="11.22" duration="156.00" routeLength="1493.50" waitingTime="18.00" waitingCount="1" stopTime="0.00" timeLoss="31.97" rerouteNo="0" devices="tripinfo_f_0_8.6 emissions_f_0_8.6" vType="DEFAULT_VEHTYPE" speedFactor="0.87" vaporized="">
        <emissions CO_abs="6809.187873" CO2_abs="371441.231046" HC_abs="39.359752" PMx_abs="5.515021" NOx_abs="143.864701" fuel_abs="118474.664663" electricity_abs="0"/>
    </tripinfo>
    <tripinfo id="f_0_8.7" depart="21.00" departLane="G5G6_0" departPos="5.10" departSpeed="0.00" departDelay="6.00" arrival="175.00" arrivalLane="G7G8_0" arrivalPos="491.30" arrivalSpeed="13.48" duration="154.00" routeLength="1493.50" waitingTime="17.00" waitingCount="1" stopTime="0.00" timeLoss="62.60" rerouteNo="0" devices="tripinfo_f_0_8.7 emissions_f_0_8.7" vType="DEFAULT_VEHTYPE" speedFactor="1.18" vaporized="">
        <emissions CO_abs="7770.513512" CO2_abs="407813.868620" HC_abs="44.855249" PMx_abs="6.985236" NOx_abs="164.733895" fuel_abs="130075.139260" electricity_abs="0"/>
    </tripinfo>
    <tripinfo id="f_0_9.9" depart="31.00" departLane="G9G8_0" departPos="5.10" departSpeed="0.00" departDelay="1.00" arrival="177.00" arrivalLane="G7G6_0" arrivalPos="492.80" arrivalSpeed="12.04" duration="146.00" routeLength="1494.90" waitingTime="11.00" waitingCount="1" stopTime="0.00" timeLoss="26.09" rerouteNo="0" devices="tripinfo_f_0_9.9 emissions_f_0_9.9" vType="DEFAULT_VEHTYPE" speedFactor="0.90" vaporized="">
        <emissions CO_abs="5442.499757" CO2_abs="345475.217009" HC_abs="32.521118" PMx_abs="5.020826" NOx_abs="132.788669" fuel_abs="110192.135221" electricity_abs="0"/>
    </tripinfo>
    <tripinfo id="f_0_8.8" depart="32.00" departLane="G5G6_0" departPos="5.10" departSpeed="0.00" departDelay="0.00" arrival="177.00" arrivalLane="G7G8_0" arrivalPos="491.30" arrivalSpeed="13.35" duration="145.00" routeLength="1493.50" waitingTime="13.00" waitingCount="1" stopTime="0.00" timeLoss="37.41" rerouteNo="0" devices="tripinfo_f_0_8.8 emissions_f_0_8.8" vType="DEFAULT_VEHTYPE" speedFactor="1.00" vaporized="">
        <emissions CO_abs="7395.626477" CO2_abs="426819.856079" HC_abs="43.323826" PMx_abs="7.275289" NOx_abs="171.555903" fuel_abs="136136.803645" electricity_abs="0"/>
    </tripinfo>
    <tripinfo id="f_0_9.10" depart="34.00" departLane="G9G8_0" departPos="5.10" departSpeed="0.00" departDelay="1.00" arrival="179.00" arrivalLane="G7G6_0" arrivalPos="492.80" arrivalSpeed="11.54" duration="145.00" routeLength="1494.90" waitingTime="8.00" waitingCount="1" stopTime="0.00" timeLoss="24.75" rerouteNo="0" devices="tripinfo_f_0_9.10 emissions_f_0_9.10" vType="DEFAULT_VEHTYPE" speedFactor="0.90" vaporized="">
        <emissions CO_abs="5226.096311" CO2_abs="345648.002359" HC_abs="31.443059" PMx_abs="4.759276" NOx_abs="130.788012" fuel_abs="110247.431385" electricity_abs="0"/>
    </tripinfo>
    <tripinfo id="f_0_8.9" depart="38.00" departLane="G5G6_0" departPos="5.10" departSpeed="0.00" departDelay="0.00" arrival="179.00" arrivalLane="G7G8_0" arrivalPos="491.30" arrivalSpeed="12.08" duration="141.00" routeLength="1493.50" waitingTime="6.00" waitingCount="1" stopTime="0.00" timeLoss="22.97" rerouteNo="0" devices="tripinfo_f_0_8.9 emissions_f_0_8.9" vType="DEFAULT_VEHTYPE" speedFactor="0.91" vaporized="">
        <emissions CO_abs="5186.151312" CO2_abs="361794.035204" HC_abs="31.902068" PMx_abs="5.397172" NOx_abs="140.463571" fuel_abs="115396.639935" electricity_abs="0"/>
    </tripinfo>
    <tripinfo id="f_0_9.11" depart="37.00" departLane="G9G8_0" departPos="5.10" departSpeed="0.00" departDelay="3.00" arrival="181.00" arrivalLane="G7G6_0" arrivalPos="492.80" arrivalSpeed="14.20" duration="144.00" routeLength="1494.90" waitingTime="9.00" waitingCount="1" stopTime="0.00" timeLoss="37.92" rerouteNo="0" devices="tripinfo_f_0_9.11 emissions_f_0_9.11" vType="DEFAULT_VEHTYPE" speedFactor="1.02" vaporized="">
        <emissions CO_abs="6346.167542" CO2_abs="390066.133662" HC_abs="37.794075" PMx_abs="6.405041" NOx_abs="155.116403" fuel_abs="124414.028612" electricity_abs="0"/>
    </tripinfo>
    <tripinfo id="f_0_8.10" depart="47.00" departLane="G5G6_0" departPos="5.10" departSpeed="0.00" departDelay="0.00" arrival="181.00" arrivalLane="G7G8_0" arrivalPos="491.30" arrivalSpeed="13.10" duration="134.00" routeLength="1493.50" waitingTime="1.00" waitingCount="1" stopTime="0.00" timeLoss="27.40" rerouteNo="0" devices="tripinfo_f_0_8.10 emissions_f_0_8.10" vType="DEFAULT_VEHTYPE" speedFactor="1.02" vaporized="">
        <emissions CO_abs="5000.103888" CO2_abs="373433.328380" HC_abs="31.224761" PMx_abs="6.038709" NOx_abs="147.702716" fuel_abs="119108.318878" electricity_abs="0"/>
    </tripinfo>
    <tripinfo id="f_0_17.6" depart="29.00" departLane="D6D5_0" departPos="5.10" departSpeed="0.00" departDelay="0.00" arrival="186.00" arrivalLane="D4D3_0" arrivalPos="491.30" arrivalSpeed="13.93" duration="157.00" routeLength="1493.50" waitingTime="37.00" waitingCount="2" stopTime="0.00" timeLoss="57.36" rerouteNo="0" devices="tripinfo_f_0_17.6 emissions_f_0_17.6" vType="DEFAULT_VEHTYPE" speedFactor="1.09" vaporized="">
        <emissions CO_abs="10819.217163" CO2_abs="464832.761700" HC_abs="59.489733" PMx_abs="8.405090" NOx_abs="188.186535" fuel_abs="148262.493335" electricity_abs="0"/>
    </tripinfo>
    <tripinfo id="f_0_1.0" depart="1.00" departLane="F7E7_0" departPos="5.10" departSpeed="0.00" departDelay="0.00" arrival="188.00" arrivalLane="C7B7_0" arrivalPos="491.30" arrivalSpeed="13.58" duration="187.00" routeLength="1993.50" waitingTime="23.00" waitingCount="2" stopTime="0.00" timeLoss="44.37" rerouteNo="0" devices="tripinfo_f_0_1.0 emissions_f_0_1.0" vType="DEFAULT_VEHTYPE" speedFactor="1.01" vaporized="">
        <emissions CO_abs="8534.460149" CO2_abs="506305.479286" HC_abs="49.633057" PMx_abs="7.723212" NOx_abs="194.719099" fuel_abs="161490.232407" electricity_abs="0"/>
    </tripinfo>
    <tripinfo id="f_0_1.1" depart="7.00" departLane="F7E7_0" departPos="5.10" departSpeed="0.00" departDelay="0.00" arrival="190.00" arrivalLane="C7B7_0" arrivalPos="491.30" arrivalSpeed="12.84" duration="183.00" routeLength="1993.50" waitingTime="15.00" waitingCount="2" stopTime="0.00" timeLoss="38.01" rerouteNo="0" devices="tripinfo_f_0_1.1 emissions_f_0_1.1" vType="DEFAULT_VEHTYPE" speedFactor="0.99" vaporized="">
        <emissions CO_abs="7820.840974" CO2_abs="482596.632930" HC_abs="46.040208" PMx_abs="7.627865" NOx_abs="188.022473" fuel_abs="153927.576299" electricity_abs="0"/>
    </tripinfo>
    <tripinfo id="f_0_9.12" depart="40.00" departLane="G9G8_0" departPos="5.10" departSpeed="0.00" departDelay="4.00" arrival="191.00" arrivalLane="G7G6_0" arrivalPos="492.80" arrivalSpeed="13.64" duration="151.00" routeLength="1494.90" waitingTime="13.00" waitingCount="2" stopTime="0.00" timeLoss="44.50" rerouteNo="0" devices="tripinfo_f_0_9.12 emissions_f_0_9.12" vType="DEFAULT_VEHTYPE" speedFactor="1.02" vaporized="">
        <emissions CO_abs="8357.472384" CO2_abs="448539.699459" HC_abs="48.105136" PMx_abs="7.741421" NOx_abs="180.702466" fuel_abs="143064.741104" electricity_abs="0"/>
    </tripinfo>
    <tripinfo id="f_0_1.2" depart="11.00" departLane="F7E7_0" departPos="5.10" departSpeed="0.00" departDelay="0.00" arrival="193.00" arrivalLane="C7B7_0" arrivalPos="491.30" arrivalSpeed="12.27" duration="182.00" routeLength="1993.50" waitingTime="11.00" waitingCount="2" stopTime="0.00" timeLoss="34.17" rerouteNo="0" devices="tripinfo_f_0_1.2 emissions_f_0_1.2" vType="DEFAULT_VEHTYPE" speedFactor="0.97" vaporized="">
        <emissions CO_abs="6512.809208" CO2_abs="461506.529740" HC_abs="39.141331" PMx_abs="6.372069" NOx_abs="172.693387" fuel_abs="147201.207937" electricity_abs="0"/>
    </tripinfo>
    <tripinfo id="f_0_16.6" depart="24.00" departLane="D2D3_0" departPos="5.10" departSpeed="0.00" departDelay="0.00" arrival="193.00" arrivalLane="D4D5_0" arrivalPos="492.80" arrivalSpeed="11.63" duration="169.00" routeLength="1494.90" waitingTime="29.00" waitingCount="2" stopTime="0.00" timeLoss="49.45" rerouteNo="0" devices="tripinfo_f_0_16.6 emissions_f_0_16.6" vType="DEFAULT_VEHTYPE" speedFactor="0.90" vaporized="">
        <emissions CO_abs="9213.121383" CO2_abs="421002.352129" HC_abs="51.368295" PMx_abs="6.667091" NOx_abs="165.772988" fuel_abs="134283.117204" electricity_abs="0"/>
    </tripinfo>
    <tripinfo id="f_0_8.11" depart="51.00" departLane="G5G6_0" departPos="5.10" departSpeed="0.00" departDelay="0.00" arrival="193.00" arrivalLane="G7G8_0" arrivalPos="491.30" arrivalSpeed="13.51" duration="142.00" routeLength="1493.50" waitingTime="9.00" waitingCount="1" stopTime="0.00" timeLoss="30.91" rerouteNo="0" devices="tripinfo_f_0_8.11 emissions_f_0_8.11" vType="DEFAULT_VEHTYPE" speedFactor="0.98" vaporized="">
        <emissions CO_abs="6599.295890" CO2_abs="410366.876563" HC_abs="39.126518" PMx_abs="6.676480" NOx_abs="162.346221" fuel_abs="130889.077906" electricity_abs="0"/>
    </tripinfo>
    <tripinfo id="f_0_9.13" depart="43.00" departLane="G9G8_0" departPos="5.10" departSpeed="0.00" departDelay="3.00" arrival="194.00" arrivalLane="G7G6_0" arrivalPos="492.80" arrivalSpeed="13.40" duration="151.00" routeLength="1494.90" waitingTime="13.00" waitingCount="2" stopTime="0.00" timeLoss="40.19" rerouteNo="0" devices="tripinfo_f_0_9.13 emissions_f_0_9.13" vType="DEFAULT_VEHTYPE" speedFactor="0.97" vaporized="">
        <emissions CO_abs="7415.021449" CO2_abs="413160.516448" HC_abs="42.937471" PMx_abs="6.663360" NOx_abs="162.938907" fuel_abs="131780.713549" electricity_abs="0"/>
    </tripinfo>
    <tripinfo id="f_0_8.12" depart="54.00" departLane="G5G6_0" departPos="5.10" departSpeed="0.00" departDelay="2.00" arrival="194.00" arrivalLane="G7G8_0" arrivalPos="491.30" arrivalSpeed="13.50" duration="140.00" routeLength="1493.50" waitingTime="8.00" waitingCount="1" stopTime="0.00" timeLoss="36.73" rerouteNo="0" devices="tripinfo_f_0_8.12 emissions_f_0_8.12" vType="DEFAULT_VEHTYPE" speedFactor="1.04" vaporized="">
        <emissions CO_abs="6868.034669" CO2_abs="418560.070690" HC_abs="40.755643" PMx_abs="7.168037" NOx_abs="168.267165" fuel_abs="133502.019516" electricity_abs="0"/>
    </tripinfo>
    <tripinfo id="f_0_16.7" depart="27.00" departLane="D2D3_0" departPos="5.10" departSpeed="0.00" departDelay="1.00" arrival="195.00" arrivalLane="D4D5_0" arrivalPos="492.80" arrivalSpeed="14.32" duration="168.00" routeLength="1494.90" waitingTime="27.00" waitingCount="2" stopTime="0.00" timeLoss="68.95" rerouteNo="0" devices="tripinfo_f_0_16.7 emissions_f_0_16.7" vType="DEFAULT_VEHTYPE" speedFactor="1.09" vaporized="">
        <emissions CO_abs="10318.422767" CO2_abs="462335.664411" HC_abs="57.520236" PMx_abs="8.220004" NOx_abs="188.346705" fuel_abs="147465.870236" electricity_abs="0"/>
    </tripinfo>