<?xml version="1.0" encoding="UTF-8"?>

<!-- generated on 2024-08-22 13:49:11 by Eclipse SUMO sumo Version 1.17.0
<configuration xmlns:xsi="http://www.w3.org/2001/XMLSchema-instance" xsi:noNamespaceSchemaLocation="http://sumo.dlr.de/xsd/sumoConfiguration.xsd">

    <input>
        <net-file value="double_neat.net.xml"/>
        <route-files value="double_4.rou.xml"/>
    </input>

    <output>
        <tripinfo-output value="emissions_test\z402_pop_200_data_All_gen_300_4emissionsdouble.xml"/>
    </output>

    <processing>
        <time-to-teleport value="-1"/>
    </processing>

    <report>
        <no-warnings value="true"/>
    </report>

    <emissions>
        <device.emissions.probability value="1.0"/>
    </emissions>

    <traci_server>
        <remote-port value="58401"/>
    </traci_server>

</configuration>
-->

<tripinfos xmlns:xsi="http://www.w3.org/2001/XMLSchema-instance" xsi:noNamespaceSchemaLocation="http://sumo.dlr.de/xsd/tripinfo_file.xsd">
    <tripinfo id="f_1_14.0" depart="1.00" departLane="C2C3_0" departPos="5.10" departSpeed="0.00" departDelay="0.00" arrival="107.00" arrivalLane="C4C5_0" arrivalPos="492.80" arrivalSpeed="14.64" duration="106.00" routeLength="1494.90" waitingTime="0.00" waitingCount="0" stopTime="0.00" timeLoss="7.01" rerouteNo="0" devices="tripinfo_f_1_14.0 emissions_f_1_14.0" vType="DEFAULT_VEHTYPE" speedFactor="1.09" vaporized="">
        <emissions CO_abs="2109.414997" CO2_abs="279442.595319" HC_abs="15.117438" PMx_abs="3.626300" NOx_abs="100.763546" fuel_abs="89129.612609" electricity_abs="0"/>
    </tripinfo>
    <tripinfo id="f_1_10.0" depart="0.00" departLane="H5H6_0" departPos="5.10" departSpeed="0.00" departDelay="0.00" arrival="108.00" arrivalLane="H7H8_0" arrivalPos="491.30" arrivalSpeed="14.00" duration="108.00" routeLength="1493.50" waitingTime="0.00" waitingCount="0" stopTime="0.00" timeLoss="8.69" rerouteNo="0" devices="tripinfo_f_1_10.0 emissions_f_1_10.0" vType="DEFAULT_VEHTYPE" speedFactor="1.08" vaporized="">
        <emissions CO_abs="2552.381171" CO2_abs="293688.877807" HC_abs="17.593483" PMx_abs="4.065284" NOx_abs="108.441452" fuel_abs="93673.424963" electricity_abs="0"/>
    </tripinfo>
    <tripinfo id="f_1_17.0" depart="5.00" departLane="D6D5_0" departPos="5.10" departSpeed="0.00" departDelay="0.00" arrival="112.00" arrivalLane="D4D3_0" arrivalPos="491.30" arrivalSpeed="15.91" duration="107.00" routeLength="1493.50" waitingTime="0.00" waitingCount="0" stopTime="0.00" timeLoss="14.98" rerouteNo="0" devices="tripinfo_f_1_17.0 emissions_f_1_17.0" vType="DEFAULT_VEHTYPE" speedFactor="1.17" vaporized="">
        <emissions CO_abs="3622.965933" CO2_abs="335513.195315" HC_abs="23.390840" PMx_abs="5.167321" NOx_abs="126.946839" fuel_abs="107013.335120" electricity_abs="0"/>
    </tripinfo>
    <tripinfo id="f_1_16.0" depart="0.00" departLane="D2D3_0" departPos="5.10" departSpeed="0.00" departDelay="0.00" arrival="115.00" arrivalLane="D4D5_0" arrivalPos="492.80" arrivalSpeed="13.64" duration="115.00" routeLength="1494.90" waitingTime="0.00" waitingCount="0" stopTime="0.00" timeLoss="9.74" rerouteNo="0" devices="tripinfo_f_1_16.0 emissions_f_1_16.0" vType="DEFAULT_VEHTYPE" speedFactor="1.03" vaporized="">
        <emissions CO_abs="3166.976054" CO2_abs="315973.419943" HC_abs="21.023637" PMx_abs="4.637392" NOx_abs="119.853900" fuel_abs="100781.115103" electricity_abs="0"/>
    </tripinfo>
    <tripinfo id="f_1_16.1" depart="6.00" departLane="D2D3_0" departPos="5.10" departSpeed="0.00" departDelay="0.00" arrival="116.00" arrivalLane="D4D5_0" arrivalPos="492.80" arrivalSpeed="14.40" duration="110.00" routeLength="1494.90" waitingTime="0.00" waitingCount="0" stopTime="0.00" timeLoss="12.21" rerouteNo="0" devices="tripinfo_f_1_16.1 emissions_f_1_16.1" vType="DEFAULT_VEHTYPE" speedFactor="1.10" vaporized="">
        <emissions CO_abs="2816.849192" CO2_abs="309131.064227" HC_abs="19.292929" PMx_abs="4.408970" NOx_abs="115.298739" fuel_abs="98598.749069" electricity_abs="0"/>
    </tripinfo>
    <tripinfo id="f_1_21.0" depart="4.00" departLane="G6G5_0" departPos="5.10" departSpeed="0.00" departDelay="0.00" arrival="118.00" arrivalLane="G4G3_0" arrivalPos="491.30" arrivalSpeed="15.38" duration="114.00" routeLength="1493.50" waitingTime="9.00" waitingCount="1" stopTime="0.00" timeLoss="21.88" rerouteNo="0" devices="tripinfo_f_1_21.0 emissions_f_1_21.0" vType="DEFAULT_VEHTYPE" speedFactor="1.18" vaporized="">
        <emissions CO_abs="4725.865721" CO2_abs="345605.171373" HC_abs="28.595598" PMx_abs="5.423068" NOx_abs="131.416142" fuel_abs="110232.723392" electricity_abs="0"/>
    </tripinfo>
    <tripinfo id="f_1_17.1" depart="8.00" departLane="D6D5_0" departPos="5.10" departSpeed="0.00" departDelay="1.00" arrival="119.00" arrivalLane="D4D3_0" arrivalPos="491.30" arrivalSpeed="13.74" duration="111.00" routeLength="1493.50" waitingTime="0.00" waitingCount="0" stopTime="0.00" timeLoss="7.95" rerouteNo="0" devices="tripinfo_f_1_17.1 emissions_f_1_17.1" vType="DEFAULT_VEHTYPE" speedFactor="1.04" vaporized="">
        <emissions CO_abs="2219.987206" CO2_abs="292874.347773" HC_abs="15.741505" PMx_abs="3.631129" NOx_abs="105.173120" fuel_abs="93413.898619" electricity_abs="0"/>
    </tripinfo>
    <tripinfo id="f_1_23.0" depart="5.00" departLane="H6H5_0" departPos="5.10" departSpeed="0.00" departDelay="0.00" arrival="121.00" arrivalLane="H4H3_0" arrivalPos="491.30" arrivalSpeed="13.13" duration="116.00" routeLength="1493.50" waitingTime="0.00" waitingCount="0" stopTime="0.00" timeLoss="7.90" rerouteNo="0" devices="tripinfo_f_1_23.0 emissions_f_1_23.0" vType="DEFAULT_VEHTYPE" speedFactor="0.99" vaporized="">
        <emissions CO_abs="2280.533001" CO2_abs="279949.870106" HC_abs="16.023199" PMx_abs="3.505518" NOx_abs="101.839370" fuel_abs="89291.632445" electricity_abs="0"/>
    </tripinfo>
    <tripinfo id="f_1_16.2" depart="9.00" departLane="D2D3_0" departPos="5.10" departSpeed="0.00" departDelay="2.00" arrival="121.00" arrivalLane="D4D5_0" arrivalPos="492.80" arrivalSpeed="13.75" duration="112.00" routeLength="1494.90" waitingTime="0.00" waitingCount="0" stopTime="0.00" timeLoss="7.64" rerouteNo="0" devices="tripinfo_f_1_16.2 emissions_f_1_16.2" vType="DEFAULT_VEHTYPE" speedFactor="1.04" vaporized="">
        <emissions CO_abs="2065.849198" CO2_abs="282024.872598" HC_abs="14.813759" PMx_abs="3.396945" NOx_abs="100.570741" fuel_abs="89953.478521" electricity_abs="0"/>
    </tripinfo>
    <tripinfo id="f_1_17.2" depart="11.00" departLane="D6D5_0" departPos="5.10" departSpeed="0.00" departDelay="3.00" arrival="121.00" arrivalLane="D4D3_0" arrivalPos="491.30" arrivalSpeed="15.68" duration="110.00" routeLength="1493.50" waitingTime="0.00" waitingCount="0" stopTime="0.00" timeLoss="17.63" rerouteNo="0" devices="tripinfo_f_1_17.2 emissions_f_1_17.2" vType="DEFAULT_VEHTYPE" speedFactor="1.17" vaporized="">
        <emissions CO_abs="3165.680808" CO2_abs="327123.254996" HC_abs="21.483333" PMx_abs="4.983056" NOx_abs="125.181036" fuel_abs="104337.165918" electricity_abs="0"/>
    </tripinfo>
    <tripinfo id="f_1_21.1" depart="16.00" departLane="G6G5_0" departPos="5.10" departSpeed="0.00" departDelay="0.00" arrival="122.00" arrivalLane="G4G3_0" arrivalPos="491.30" arrivalSpeed="15.04" duration="106.00" routeLength="1493.50" waitingTime="0.00" waitingCount="0" stopTime="0.00" timeLoss="6.85" rerouteNo="0" devices="tripinfo_f_1_21.1 emissions_f_1_21.1" vType="DEFAULT_VEHTYPE" speedFactor="1.09" vaporized="">
        <emissions CO_abs="2261.530710" CO2_abs="282557.550633" HC_abs="16.149185" PMx_abs="3.903349" NOx_abs="103.765036" fuel_abs="90123.000698" electricity_abs="0"/>
    </tripinfo>
    <tripinfo id="f_0_5.0" depart="0.00" departLane="D9D8_0" departPos="5.10" departSpeed="0.00" departDelay="0.00" arrival="123.00" arrivalLane="D7D6_0" arrivalPos="492.80" arrivalSpeed="12.52" duration="123.00" routeLength="1494.90" waitingTime="0.00" waitingCount="0" stopTime="0.00" timeLoss="8.24" rerouteNo="0" devices="tripinfo_f_0_5.0 emissions_f_0_5.0" vType="DEFAULT_VEHTYPE" speedFactor="0.94" vaporized="">
        <emissions CO_abs="2707.781637" CO2_abs="297851.698053" HC_abs="18.502434" PMx_abs="3.803158" NOx_abs="109.440766" fuel_abs="95001.628349" electricity_abs="0"/>
    </tripinfo>
    <tripinfo id="f_1_23.1" depart="12.00" departLane="H6H5_0" departPos="5.10" departSpeed="0.00" departDelay="0.00" arrival="123.00" arrivalLane="H4H3_0" arrivalPos="491.30" arrivalSpeed="14.49" duration="111.00" routeLength="1493.50" waitingTime="0.00" waitingCount="0" stopTime="0.00" timeLoss="8.71" rerouteNo="0" devices="tripinfo_f_1_23.1 emissions_f_1_23.1" vType="DEFAULT_VEHTYPE" speedFactor="1.06" vaporized="">
        <emissions CO_abs="2585.436631" CO2_abs="295733.834010" HC_abs="17.785011" PMx_abs="4.082324" NOx_abs="109.456868" fuel_abs="94325.693442" electricity_abs="0"/>
    </tripinfo>
    <tripinfo id="f_1_16.3" depart="12.00" departLane="D2D3_0" departPos="5.10" departSpeed="0.00" departDelay="1.00" arrival="124.00" arrivalLane="D4D5_0" arrivalPos="492.80" arrivalSpeed="13.76" duration="112.00" routeLength="1494.90" waitingTime="0.00" waitingCount="0" stopTime="0.00" timeLoss="8.00" rerouteNo="0" devices="tripinfo_f_1_16.3 emissions_f_1_16.3" vType="DEFAULT_VEHTYPE" speedFactor="1.04" vaporized="">
        <emissions CO_abs="2508.571169" CO2_abs="296020.959345" HC_abs="17.543795" PMx_abs="4.013778" NOx_abs="109.060599" fuel_abs="94417.340785" electricity_abs="0"/>
    </tripinfo>
    <tripinfo id="f_0_2.0" depart="0.00" departLane="C5C6_0" departPos="5.10" departSpeed="0.00" departDelay="0.00" arrival="125.00" arrivalLane="C7C8_0" arrivalPos="491.30" arrivalSpeed="14.51" duration="125.00" routeLength="1493.50" waitingTime="9.00" waitingCount="1" stopTime="0.00" timeLoss="22.94" rerouteNo="0" devices="tripinfo_f_0_2.0 emissions_f_0_2.0" vType="DEFAULT_VEHTYPE" speedFactor="1.06" vaporized="">
        <emissions CO_abs="5055.123634" CO2_abs="351417.160698" HC_abs="30.690091" PMx_abs="5.541051" NOx_abs="136.022855" fuel_abs="112086.621602" electricity_abs="0"/>
    </tripinfo>
    <tripinfo id="f_1_9.0" depart="1.00" departLane="G9G8_0" departPos="5.10" departSpeed="0.00" departDelay="0.00" arrival="125.00" arrivalLane="G7G6_0" arrivalPos="492.80" arrivalSpeed="12.88" duration="124.00" routeLength="1494.90" waitingTime="0.00" waitingCount="0" stopTime="0.00" timeLoss="8.35" rerouteNo="0" devices="tripinfo_f_1_9.0 emissions_f_1_9.0" vType="DEFAULT_VEHTYPE" speedFactor="0.94" vaporized="">
        <emissions CO_abs="2484.482801" CO2_abs="287517.673232" HC_abs="17.443937" PMx_abs="3.559499" NOx_abs="104.964085" fuel_abs="91705.586173" electricity_abs="0"/>
    </tripinfo>
    <tripinfo id="f_0_3.0" depart="9.00" departLane="C9C8_0" departPos="5.10" departSpeed="0.00" departDelay="0.00" arrival="126.00" arrivalLane="C7C6_0" arrivalPos="492.80" arrivalSpeed="13.18" duration="117.00" routeLength="1494.90" waitingTime="0.00" waitingCount="0" stopTime="0.00" timeLoss="8.85" rerouteNo="0" devices="tripinfo_f_0_3.0 emissions_f_0_3.0" vType="DEFAULT_VEHTYPE" speedFactor="1.00" vaporized="">
        <emissions CO_abs="2506.495703" CO2_abs="284642.000439" HC_abs="17.360395" PMx_abs="3.772221" NOx_abs="105.221183" fuel_abs="90788.097120" electricity_abs="0"/>
    </tripinfo>
    <tripinfo id="f_1_15.0" depart="2.00" departLane="C6C5_0" departPos="5.10" departSpeed="0.00" departDelay="0.00" arrival="127.00" arrivalLane="C4C3_0" arrivalPos="491.30" arrivalSpeed="12.92" duration="125.00" routeLength="1493.50" waitingTime="0.00" waitingCount="0" stopTime="0.00" timeLoss="9.91" rerouteNo="0" devices="tripinfo_f_1_15.0 emissions_f_1_15.0" vType="DEFAULT_VEHTYPE" speedFactor="0.94" vaporized="">
        <emissions CO_abs="2698.516059" CO2_abs="300375.305739" HC_abs="18.677168" PMx_abs="3.713236" NOx_abs="109.700478" fuel_abs="95806.681931" electricity_abs="0"/>
    </tripinfo>
    <tripinfo id="f_1_14.1" depart="4.00" departLane="C2C3_0" departPos="5.10" departSpeed="0.00" departDelay="2.00" arrival="128.00" arrivalLane="C4C5_0" arrivalPos="492.80" arrivalSpeed="12.93" duration="124.00" routeLength="1494.90" waitingTime="0.00" waitingCount="0" stopTime="0.00" timeLoss="9.03" rerouteNo="0" devices="tripinfo_f_1_14.1 emissions_f_1_14.1" vType="DEFAULT_VEHTYPE" speedFactor="0.94" vaporized="">
        <emissions CO_abs="2708.828456" CO2_abs="296550.578441" HC_abs="18.604153" PMx_abs="3.774180" NOx_abs="109.330740" fuel_abs="94586.619338" electricity_abs="0"/>
    </tripinfo>
    <tripinfo id="f_0_2.1" depart="3.00" departLane="C5C6_0" departPos="5.10" departSpeed="0.00" departDelay="0.00" arrival="129.00" arrivalLane="C7C8_0" arrivalPos="491.30" arrivalSpeed="12.47" duration="126.00" routeLength="1493.50" waitingTime="1.00" waitingCount="1" stopTime="0.00" timeLoss="15.72" rerouteNo="0" devices="tripinfo_f_0_2.1 emissions_f_0_2.1" vType="DEFAULT_VEHTYPE" speedFactor="0.97" vaporized="">
        <emissions CO_abs="3693.221621" CO2_abs="325378.795301" HC_abs="23.622075" PMx_abs="4.507636" NOx_abs="121.911991" fuel_abs="103781.602332" electricity_abs="0"/>
    </tripinfo>
    <tripinfo id="f_1_14.2" depart="9.00" departLane="C2C3_0" departPos="5.10" departSpeed="0.00" departDelay="0.00" arrival="129.00" arrivalLane="C4C5_0" arrivalPos="492.80" arrivalSpeed="15.15" duration="120.00" routeLength="1494.90" waitingTime="0.00" waitingCount="0" stopTime="0.00" timeLoss="25.66" rerouteNo="0" devices="tripinfo_f_1_14.2 emissions_f_1_14.2" vType="DEFAULT_VEHTYPE" speedFactor="1.14" vaporized="">
        <emissions CO_abs="3846.894711" CO2_abs="344446.663856" HC_abs="25.196178" PMx_abs="5.408035" NOx_abs="134.130511" fuel_abs="109862.611547" electricity_abs="0"/>
    </tripinfo>
    <tripinfo id="f_1_15.1" depart="12.00" departLane="C6C5_0" departPos="5.10" departSpeed="0.00" departDelay="0.00" arrival="129.00" arrivalLane="C4C3_0" arrivalPos="491.30" arrivalSpeed="13.79" duration="117.00" routeLength="1493.50" waitingTime="0.00" waitingCount="0" stopTime="0.00" timeLoss="11.29" rerouteNo="0" devices="tripinfo_f_1_15.1 emissions_f_1_15.1" vType="DEFAULT_VEHTYPE" speedFactor="1.02" vaporized="">
        <emissions CO_abs="3086.253483" CO2_abs="306323.349945" HC_abs="20.791714" PMx_abs="4.533675" NOx_abs="116.880050" fuel_abs="97703.179739" electricity_abs="0"/>
    </tripinfo>
    <tripinfo id="f_1_14.3" depart="15.00" departLane="C2C3_0" departPos="5.10" departSpeed="0.00" departDelay="0.00" arrival="131.00" arrivalLane="C4C5_0" arrivalPos="492.80" arrivalSpeed="13.13" duration="116.00" routeLength="1494.90" waitingTime="0.00" waitingCount="0" stopTime="0.00" timeLoss="8.31" rerouteNo="0" devices="tripinfo_f_1_14.3 emissions_f_1_14.3" vType="DEFAULT_VEHTYPE" speedFactor="1.00" vaporized="">
        <emissions CO_abs="2618.305361" CO2_abs="300347.642273" HC_abs="18.434974" PMx_abs="4.070714" NOx_abs="111.698735" fuel_abs="95797.405953" electricity_abs="0"/>
    </tripinfo>
    <tripinfo id="f_1_15.2" depart="15.00" departLane="C6C5_0" departPos="5.10" departSpeed="0.00" departDelay="0.00" arrival="131.00" arrivalLane="C4C3_0" arrivalPos="491.30" arrivalSpeed="13.24" duration="116.00" routeLength="1493.50" waitingTime="0.00" waitingCount="0" stopTime="0.00" timeLoss="12.10" rerouteNo="0" devices="tripinfo_f_1_15.2 emissions_f_1_15.2" vType="DEFAULT_VEHTYPE" speedFactor="1.04" vaporized="">
        <emissions CO_abs="3171.866051" CO2_abs="313418.042764" HC_abs="21.132650" PMx_abs="4.675696" NOx_abs="119.534839" fuel_abs="99966.023715" electricity_abs="0"/>
    </tripinfo>
    <tripinfo id="f_0_3.1" depart="12.00" departLane="C9C8_0" departPos="5.10" departSpeed="0.00" departDelay="2.00" arrival="132.00" arrivalLane="C7C6_0" arrivalPos="492.80" arrivalSpeed="13.08" duration="120.00" routeLength="1494.90" waitingTime="0.00" waitingCount="0" stopTime="0.00" timeLoss="8.05" rerouteNo="0" devices="tripinfo_f_0_3.1 emissions_f_0_3.1" vType="DEFAULT_VEHTYPE" speedFactor="0.97" vaporized="">
        <emissions CO_abs="2393.074547" CO2_abs="287237.912148" HC_abs="16.819402" PMx_abs="3.580020" NOx_abs="104.421860" fuel_abs="91616.284267" electricity_abs="0"/>
    </tripinfo>
    <tripinfo id="f_1_15.3" depart="20.00" departLane="C6C5_0" departPos="5.10" departSpeed="0.00" departDelay="0.00" arrival="132.00" arrivalLane="C4C3_0" arrivalPos="491.30" arrivalSpeed="14.19" duration="112.00" routeLength="1493.50" waitingTime="0.00" waitingCount="0" stopTime="0.00" timeLoss="10.76" rerouteNo="0" devices="tripinfo_f_1_15.3 emissions_f_1_15.3" vType="DEFAULT_VEHTYPE" speedFactor="1.06" vaporized="">
        <emissions CO_abs="2814.012837" CO2_abs="307686.765405" HC_abs="19.417071" PMx_abs="4.437416" NOx_abs="115.673231" fuel_abs="98138.032629" electricity_abs="0"/>
    </tripinfo>
    <tripinfo id="f_0_3.2" depart="15.00" departLane="C9C8_0" departPos="5.10" departSpeed="0.00" departDelay="2.00" arrival="133.00" arrivalLane="C7C6_0" arrivalPos="492.80" arrivalSpeed="12.89" duration="118.00" routeLength="1494.90" waitingTime="0.00" waitingCount="0" stopTime="0.00" timeLoss="8.55" rerouteNo="0" devices="tripinfo_f_0_3.2 emissions_f_0_3.2" vType="DEFAULT_VEHTYPE" speedFactor="0.98" vaporized="">
        <emissions CO_abs="2535.268808" CO2_abs="286360.689568" HC_abs="17.436196" PMx_abs="3.729746" NOx_abs="105.631500" fuel_abs="91336.344416" electricity_abs="0"/>
    </tripinfo>
    <tripinfo id="f_1_14.4" depart="18.00" departLane="C2C3_0" departPos="5.10" departSpeed="0.00" departDelay="0.00" arrival="133.00" arrivalLane="C4C5_0" arrivalPos="492.80" arrivalSpeed="15.56" duration="115.00" routeLength="1494.90" waitingTime="0.00" waitingCount="0" stopTime="0.00" timeLoss="18.36" rerouteNo="0" devices="tripinfo_f_1_14.4 emissions_f_1_14.4" vType="DEFAULT_VEHTYPE" speedFactor="1.12" vaporized="">
        <emissions CO_abs="3288.929568" CO2_abs="328583.696036" HC_abs="22.123121" PMx_abs="4.919074" NOx_abs="125.326827" fuel_abs="104803.136502" electricity_abs="0"/>
    </tripinfo>
    <tripinfo id="f_1_10.1" depart="10.00" departLane="H5H6_0" departPos="5.10" departSpeed="0.00" departDelay="0.00" arrival="134.00" arrivalLane="H7H8_0" arrivalPos="491.30" arrivalSpeed="12.15" duration="124.00" routeLength="1493.50" waitingTime="0.00" waitingCount="0" stopTime="0.00" timeLoss="9.15" rerouteNo="0" devices="tripinfo_f_1_10.1 emissions_f_1_10.1" vType="DEFAULT_VEHTYPE" speedFactor="0.94" vaporized="">
        <emissions CO_abs="2557.105563" CO2_abs="289635.867369" HC_abs="17.639234" PMx_abs="3.496125" NOx_abs="105.224495" fuel_abs="92381.309547" electricity_abs="0"/>
    </tripinfo>
    <tripinfo id="f_1_14.5" depart="21.00" departLane="C2C3_0" departPos="5.10" departSpeed="0.00" departDelay="1.00" arrival="135.00" arrivalLane="C4C5_0" arrivalPos="492.80" arrivalSpeed="13.34" duration="114.00" routeLength="1494.90" waitingTime="0.00" waitingCount="0" stopTime="0.00" timeLoss="9.24" rerouteNo="0" devices="tripinfo_f_1_14.5 emissions_f_1_14.5" vType="DEFAULT_VEHTYPE" speedFactor="1.03" vaporized="">
        <emissions CO_abs="3087.616874" CO2_abs="323990.395529" HC_abs="20.950886" PMx_abs="4.732468" NOx_abs="122.473377" fuel_abs="103338.119318" electricity_abs="0"/>
    </tripinfo>
    <tripinfo id="f_0_3.3" depart="24.00" departLane="C9C8_0" departPos="5.10" departSpeed="0.00" departDelay="0.00" arrival="135.00" arrivalLane="C7C6_0" arrivalPos="492.80" arrivalSpeed="14.28" duration="111.00" routeLength="1494.90" waitingTime="0.00" waitingCount="0" stopTime="0.00" timeLoss="9.00" rerouteNo="0" devices="tripinfo_f_0_3.3 emissions_f_0_3.3" vType="DEFAULT_VEHTYPE" speedFactor="1.06" vaporized="">
        <emissions CO_abs="2927.616729" CO2_abs="304632.727529" HC_abs="19.853044" PMx_abs="4.526001" NOx_abs="115.623751" fuel_abs="97163.842552" electricity_abs="0"/>
    </tripinfo>
    <tripinfo id="f_1_11.0" depart="1.00" departLane="H9H8_0" departPos="5.10" departSpeed="0.00" departDelay="0.00" arrival="136.00" arrivalLane="H7H6_0" arrivalPos="492.80" arrivalSpeed="11.24" duration="135.00" routeLength="1494.90" waitingTime="0.00" waitingCount="0" stopTime="0.00" timeLoss="9.24" rerouteNo="0" devices="tripinfo_f_1_11.0 emissions_f_1_11.0" vType="DEFAULT_VEHTYPE" speedFactor="0.86" vaporized="">
        <emissions CO_abs="3186.099563" CO2_abs="303328.248041" HC_abs="21.371986" PMx_abs="3.840602" NOx_abs="113.028624" fuel_abs="96748.650463" electricity_abs="0"/>
    </tripinfo>
    <tripinfo id="f_0_2.2" depart="7.00" departLane="C5C6_0" departPos="5.10" departSpeed="0.00" departDelay="0.00" arrival="136.00" arrivalLane="C7C8_0" arrivalPos="491.30" arrivalSpeed="12.19" duration="129.00" routeLength="1493.50" waitingTime="0.00" waitingCount="0" stopTime="0.00" timeLoss="9.59" rerouteNo="0" devices="tripinfo_f_0_2.2 emissions_f_0_2.2" vType="DEFAULT_VEHTYPE" speedFactor="0.90" vaporized="">
        <emissions CO_abs="2706.101305" CO2_abs="288993.748521" HC_abs="18.645706" PMx_abs="3.469103" NOx_abs="105.637790" fuel_abs="92176.611040" electricity_abs="0"/>
    </tripinfo>
    <tripinfo id="f_0_2.3" depart="10.00" departLane="C5C6_0" departPos="5.10" departSpeed="0.00" departDelay="2.00" arrival="139.00" arrivalLane="C7C8_0" arrivalPos="491.30" arrivalSpeed="11.55" duration="129.00" routeLength="1493.50" waitingTime="0.00" waitingCount="0" stopTime="0.00" timeLoss="8.76" rerouteNo="0" devices="tripinfo_f_0_2.3 emissions_f_0_2.3" vType="DEFAULT_VEHTYPE" speedFactor="0.90" vaporized="">
        <emissions CO_abs="2880.857977" CO2_abs="297737.422831" HC_abs="19.534852" PMx_abs="3.771840" NOx_abs="109.805656" fuel_abs="94965.322012" electricity_abs="0"/>
    </tripinfo>
    <tripinfo id="f_1_10.2" depart="13.00" departLane="H5H6_0" departPos="5.10" departSpeed="0.00" departDelay="2.00" arrival="140.00" arrivalLane="H7H8_0" arrivalPos="491.30" arrivalSpeed="12.33" duration="127.00" routeLength="1493.50" waitingTime="0.00" waitingCount="0" stopTime="0.00" timeLoss="9.28" rerouteNo="0" devices="tripinfo_f_1_10.2 emissions_f_1_10.2" vType="DEFAULT_VEHTYPE" speedFactor="0.91" vaporized="">
        <emissions CO_abs="2992.412657" CO2_abs="295175.893403" HC_abs="20.269151" PMx_abs="3.995895" NOx_abs="111.157786" fuel_abs="94148.063547" electricity_abs="0"/>
    </tripinfo>
    <tripinfo id="f_0_2.4" depart="13.00" departLane="C5C6_0" departPos="5.10" departSpeed="0.00" departDelay="0.00" arrival="140.00" arrivalLane="C7C8_0" arrivalPos="491.30" arrivalSpeed="13.11" duration="127.00" routeLength="1493.50" waitingTime="0.00" waitingCount="0" stopTime="0.00" timeLoss="14.32" rerouteNo="0" devices="tripinfo_f_0_2.4 emissions_f_0_2.4" vType="DEFAULT_VEHTYPE" speedFactor="0.96" vaporized="">
        <emissions CO_abs="3458.130962" CO2_abs="313798.933684" HC_abs="22.834211" PMx_abs="4.579402" NOx_abs="120.581777" fuel_abs="100087.768224" electricity_abs="0"/>
    </tripinfo>
    <tripinfo id="f_1_10.3" depart="16.00" departLane="H5H6_0" departPos="5.10" departSpeed="0.00" departDelay="0.00" arrival="142.00" arrivalLane="H7H8_0" arrivalPos="491.30" arrivalSpeed="13.07" duration="126.00" routeLength="1493.50" waitingTime="0.00" waitingCount="0" stopTime="0.00" timeLoss="20.35" rerouteNo="0" devices="tripinfo_f_1_10.3 emissions_f_1_10.3" vType="DEFAULT_VEHTYPE" speedFactor="1.02" vaporized="">
        <emissions CO_abs="3827.046044" CO2_abs="338011.899645" HC_abs="25.082727" PMx_abs="5.146723" NOx_abs="131.324534" fuel_abs="107810.430684" electricity_abs="0"/>
    </tripinfo>
    <tripinfo id="f_0_2.5" depart="19.00" departLane="C5C6_0" departPos="5.10" departSpeed="0.00" departDelay="0.00" arrival="142.00" arrivalLane="C7C8_0" arrivalPos="491.30" arrivalSpeed="13.03" duration="123.00" routeLength="1493.50" waitingTime="0.00" waitingCount="0" stopTime="0.00" timeLoss="10.25" rerouteNo="0" devices="tripinfo_f_0_2.5 emissions_f_0_2.5" vType="DEFAULT_VEHTYPE" speedFactor="0.96" vaporized="">
        <emissions CO_abs="3049.577758" CO2_abs="310633.225439" HC_abs="20.602817" PMx_abs="4.276930" NOx_abs="116.810226" fuel_abs="99078.132348" electricity_abs="0"/>
    </tripinfo>
    <tripinfo id="f_1_11.1" depart="8.00" departLane="H9H8_0" departPos="5.10" departSpeed="0.00" departDelay="0.00" arrival="144.00" arrivalLane="H7H6_0" arrivalPos="492.80" arrivalSpeed="11.79" duration="136.00" routeLength="1494.90" waitingTime="0.00" waitingCount="0" stopTime="0.00" timeLoss="9.85" rerouteNo="0" devices="tripinfo_f_1_11.1 emissions_f_1_11.1" vType="DEFAULT_VEHTYPE" speedFactor="0.85" vaporized="">
        <emissions CO_abs="3150.272069" CO2_abs="298891.474962" HC_abs="20.972486" PMx_abs="3.707602" NOx_abs="110.528905" fuel_abs="95333.644803" electricity_abs="0"/>
    </tripinfo>
    <tripinfo id="f_1_11.2" depart="22.00" departLane="H9H8_0" departPos="5.10" departSpeed="0.00" departDelay="0.00" arrival="146.00" arrivalLane="H7H6_0" arrivalPos="492.80" arrivalSpeed="14.76" duration="124.00" routeLength="1494.90" waitingTime="0.00" waitingCount="0" stopTime="0.00" timeLoss="22.76" rerouteNo="0" devices="tripinfo_f_1_11.2 emissions_f_1_11.2" vType="DEFAULT_VEHTYPE" speedFactor="1.07" vaporized="">
        <emissions CO_abs="3279.849215" CO2_abs="316128.726703" HC_abs="21.797372" PMx_abs="4.504368" NOx_abs="119.579527" fuel_abs="100830.886735" electricity_abs="0"/>
    </tripinfo>
    <tripinfo id="f_0_1.0" depart="5.00" departLane="F7E7_0" departPos="5.10" departSpeed="0.00" departDelay="0.00" arrival="149.00" arrivalLane="C7B7_0" arrivalPos="491.30" arrivalSpeed="15.10" duration="144.00" routeLength="1993.50" waitingTime="4.00" waitingCount="1" stopTime="0.00" timeLoss="19.54" rerouteNo="0" devices="tripinfo_f_0_1.0 emissions_f_0_1.0" vType="DEFAULT_VEHTYPE" speedFactor="1.15" vaporized="">
        <emissions CO_abs="4667.209252" CO2_abs="420083.685760" HC_abs="29.709917" PMx_abs="6.249455" NOx_abs="156.758456" fuel_abs="133987.803234" electricity_abs="0"/>
    </tripinfo>
    <tripinfo id="f_1_13.0" depart="4.00" departLane="F4E4_0" departPos="5.10" departSpeed="0.00" departDelay="0.00" arrival="154.00" arrivalLane="C4B4_0" arrivalPos="491.30" arrivalSpeed="14.99" duration="150.00" routeLength="1993.50" waitingTime="8.00" waitingCount="1" stopTime="0.00" timeLoss="22.73" rerouteNo="0" devices="tripinfo_f_1_13.0 emissions_f_1_13.0" vType="DEFAULT_VEHTYPE" speedFactor="1.13" vaporized="">
        <emissions CO_abs="5202.768943" CO2_abs="415849.003014" HC_abs="32.196719" PMx_abs="6.414535" NOx_abs="157.644188" fuel_abs="132637.231390" electricity_abs="0"/>
    </tripinfo>
    <tripinfo id="f_1_6.0" depart="1.00" departLane="E7F7_0" departPos="5.10" departSpeed="0.00" departDelay="0.00" arrival="155.00" arrivalLane="H7I7_0" arrivalPos="491.30" arrivalSpeed="14.48" duration="154.00" routeLength="1993.50" waitingTime="1.00" waitingCount="1" stopTime="0.00" timeLoss="16.49" rerouteNo="0" devices="tripinfo_f_1_6.0 emissions_f_1_6.0" vType="DEFAULT_VEHTYPE" speedFactor="1.05" vaporized="">
        <emissions CO_abs="4072.144341" CO2_abs="411848.192457" HC_abs="27.185395" PMx_abs="5.793216" NOx_abs="153.848831" fuel_abs="131361.111374" electricity_abs="0"/>
    </tripinfo>
    <tripinfo id="f_1_18.0" depart="1.00" departLane="E4F4_0" departPos="5.10" departSpeed="0.00" departDelay="0.00" arrival="157.00" arrivalLane="H4I4_0" arrivalPos="491.30" arrivalSpeed="13.46" duration="156.00" routeLength="1993.50" waitingTime="0.00" waitingCount="0" stopTime="0.00" timeLoss="15.33" rerouteNo="0" devices="tripinfo_f_1_18.0 emissions_f_1_18.0" vType="DEFAULT_VEHTYPE" speedFactor="1.03" vaporized="">
        <emissions CO_abs="3856.433909" CO2_abs="403133.588107" HC_abs="25.859874" PMx_abs="5.479248" NOx_abs="149.193092" fuel_abs="128581.661011" electricity_abs="0"/>
    </tripinfo>
    <tripinfo id="f_1_18.1" depart="7.00" departLane="E4F4_0" departPos="5.10" departSpeed="0.00" departDelay="0.00" arrival="158.00" arrivalLane="H4I4_0" arrivalPos="491.30" arrivalSpeed="13.88" duration="151.00" routeLength="1993.50" waitingTime="0.00" waitingCount="0" stopTime="0.00" timeLoss="18.94" rerouteNo="0" devices="tripinfo_f_1_18.1 emissions_f_1_18.1" vType="DEFAULT_VEHTYPE" speedFactor="1.09" vaporized="">
        <emissions CO_abs="4189.151018" CO2_abs="419390.806654" HC_abs="27.927505" PMx_abs="6.176417" NOx_abs="158.641093" fuel_abs="133766.542223" electricity_abs="0"/>
    </tripinfo>
    <tripinfo id="f_1_21.2" depart="19.00" departLane="G6G5_0" departPos="5.10" departSpeed="0.00" departDelay="2.00" arrival="158.00" arrivalLane="G4G3_0" arrivalPos="491.30" arrivalSpeed="13.78" duration="139.00" routeLength="1493.50" waitingTime="19.00" waitingCount="1" stopTime="0.00" timeLoss="31.92" rerouteNo="0" devices="tripinfo_f_1_21.2 emissions_f_1_21.2" vType="DEFAULT_VEHTYPE" speedFactor="1.01" vaporized="">
        <emissions CO_abs="6560.447007" CO2_abs="381046.175948" HC_abs="38.088786" PMx_abs="6.039571" NOx_abs="148.261097" fuel_abs="121537.587321" electricity_abs="0"/>
    </tripinfo>
    <tripinfo id="f_0_4.0" depart="3.00" departLane="D5D6_0" departPos="5.10" departSpeed="0.00" departDelay="0.00" arrival="159.00" arrivalLane="D7D8_0" arrivalPos="491.30" arrivalSpeed="11.21" duration="156.00" routeLength="1493.50" waitingTime="21.00" waitingCount="1" stopTime="0.00" timeLoss="35.06" rerouteNo="0" devices="tripinfo_f_0_4.0 emissions_f_0_4.0" vType="DEFAULT_VEHTYPE" speedFactor="0.89" vaporized="">
        <emissions CO_abs="7242.462451" CO2_abs="369959.196552" HC_abs="41.209123" PMx_abs="5.665296" NOx_abs="144.139942" fuel_abs="118002.064573" electricity_abs="0"/>
    </tripinfo>
    <tripinfo id="f_1_21.3" depart="22.00" departLane="G6G5_0" departPos="5.10" departSpeed="0.00" departDelay="4.00" arrival="160.00" arrivalLane="G4G3_0" arrivalPos="491.30" arrivalSpeed="14.02" duration="138.00" routeLength="1493.50" waitingTime="17.00" waitingCount="1" stopTime="0.00" timeLoss="39.18" rerouteNo="0" devices="tripinfo_f_1_21.3 emissions_f_1_21.3" vType="DEFAULT_VEHTYPE" speedFactor="1.10" vaporized="">