<?xml version="1.0" encoding="UTF-8"?>

<!-- generated on 2024-08-22 13:48:41 by Eclipse SUMO sumo Version 1.17.0
<configuration xmlns:xsi="http://www.w3.org/2001/XMLSchema-instance" xsi:noNamespaceSchemaLocation="http://sumo.dlr.de/xsd/sumoConfiguration.xsd">

    <input>
        <net-file value="double_neat.net.xml"/>
        <route-files value="double_1.rou.xml"/>
    </input>

    <output>
        <tripinfo-output value="emissions_test\z402_pop_200_data_All_gen_300_1emissionsdouble.xml"/>
    </output>

    <processing>
        <time-to-teleport value="-1"/>
    </processing>

    <report>
        <no-warnings value="true"/>
    </report>

    <emissions>
        <device.emissions.probability value="1.0"/>
    </emissions>

    <traci_server>
        <remote-port value="58394"/>
    </traci_server>

</configuration>
-->

<tripinfos xmlns:xsi="http://www.w3.org/2001/XMLSchema-instance" xsi:noNamespaceSchemaLocation="http://sumo.dlr.de/xsd/tripinfo_file.xsd">
    <tripinfo id="f_0_16.0" depart="1.00" departLane="D2D3_0" departPos="5.10" departSpeed="0.00" departDelay="0.00" arrival="114.00" arrivalLane="D4D5_0" arrivalPos="492.80" arrivalSpeed="14.13" duration="113.00" routeLength="1494.90" waitingTime="0.00" waitingCount="0" stopTime="0.00" timeLoss="13.49" rerouteNo="0" devices="tripinfo_f_0_16.0 emissions_f_0_16.0" vType="DEFAULT_VEHTYPE" speedFactor="1.08" vaporized="">
        <emissions CO_abs="3092.683024" CO2_abs="313979.374121" HC_abs="20.501550" PMx_abs="4.507818" NOx_abs="117.733393" fuel_abs="100145.196667" electricity_abs="0"/>
    </tripinfo>
    <tripinfo id="f_0_8.0" depart="0.00" departLane="G5G6_0" departPos="5.10" departSpeed="0.00" departDelay="0.00" arrival="121.00" arrivalLane="G7G8_0" arrivalPos="491.30" arrivalSpeed="13.75" duration="121.00" routeLength="1493.50" waitingTime="7.00" waitingCount="1" stopTime="0.00" timeLoss="18.75" rerouteNo="0" devices="tripinfo_f_0_8.0 emissions_f_0_8.0" vType="DEFAULT_VEHTYPE" speedFactor="1.06" vaporized="">
        <emissions CO_abs="4376.426656" CO2_abs="341670.162416" HC_abs="27.154541" PMx_abs="5.204095" NOx_abs="130.846943" fuel_abs="108977.612745" electricity_abs="0"/>
    </tripinfo>
    <tripinfo id="f_0_9.0" depart="2.00" departLane="G9G8_0" departPos="5.10" departSpeed="0.00" departDelay="0.00" arrival="122.00" arrivalLane="G7G6_0" arrivalPos="492.80" arrivalSpeed="14.10" duration="120.00" routeLength="1494.90" waitingTime="2.00" waitingCount="1" stopTime="0.00" timeLoss="15.27" rerouteNo="0" devices="tripinfo_f_0_9.0 emissions_f_0_9.0" vType="DEFAULT_VEHTYPE" speedFactor="1.03" vaporized="">
        <emissions CO_abs="3469.945307" CO2_abs="315227.851190" HC_abs="22.343322" PMx_abs="4.489967" NOx_abs="118.286100" fuel_abs="100543.686205" electricity_abs="0"/>
    </tripinfo>
    <tripinfo id="f_0_17.0" depart="0.00" departLane="D6D5_0" departPos="5.10" departSpeed="0.00" departDelay="0.00" arrival="123.00" arrivalLane="D4D3_0" arrivalPos="491.30" arrivalSpeed="11.94" duration="123.00" routeLength="1493.50" waitingTime="0.00" waitingCount="0" stopTime="0.00" timeLoss="7.90" rerouteNo="0" devices="tripinfo_f_0_17.0 emissions_f_0_17.0" vType="DEFAULT_VEHTYPE" speedFactor="0.94" vaporized="">
        <emissions CO_abs="2864.630590" CO2_abs="291236.356920" HC_abs="19.347054" PMx_abs="4.015789" NOx_abs="109.501663" fuel_abs="92891.407399" electricity_abs="0"/>
    </tripinfo>
    <tripinfo id="f_0_8.1" depart="3.00" departLane="G5G6_0" departPos="5.10" departSpeed="0.00" departDelay="0.00" arrival="124.00" arrivalLane="G7G8_0" arrivalPos="491.30" arrivalSpeed="14.29" duration="121.00" routeLength="1493.50" waitingTime="2.00" waitingCount="1" stopTime="0.00" timeLoss="17.31" rerouteNo="0" devices="tripinfo_f_0_8.1 emissions_f_0_8.1" vType="DEFAULT_VEHTYPE" speedFactor="1.05" vaporized="">
        <emissions CO_abs="4021.845937" CO2_abs="331464.040512" HC_abs="25.086892" PMx_abs="4.882103" NOx_abs="125.215836" fuel_abs="105722.346559" electricity_abs="0"/>
    </tripinfo>
    <tripinfo id="f_0_8.2" depart="6.00" departLane="G5G6_0" departPos="5.10" departSpeed="0.00" departDelay="0.00" arrival="126.00" arrivalLane="G7G8_0" arrivalPos="491.30" arrivalSpeed="13.58" duration="120.00" routeLength="1493.50" waitingTime="0.00" waitingCount="0" stopTime="0.00" timeLoss="14.98" rerouteNo="0" devices="tripinfo_f_0_8.2 emissions_f_0_8.2" vType="DEFAULT_VEHTYPE" speedFactor="1.03" vaporized="">
        <emissions CO_abs="3607.122265" CO2_abs="310665.730518" HC_abs="23.136747" PMx_abs="4.580860" NOx_abs="118.031301" fuel_abs="99088.522684" electricity_abs="0"/>
    </tripinfo>
    <tripinfo id="f_0_17.1" depart="4.00" departLane="D6D5_0" departPos="5.10" departSpeed="0.00" departDelay="0.00" arrival="136.00" arrivalLane="D4D3_0" arrivalPos="491.30" arrivalSpeed="11.81" duration="132.00" routeLength="1493.50" waitingTime="0.00" waitingCount="0" stopTime="0.00" timeLoss="9.69" rerouteNo="0" devices="tripinfo_f_0_17.1 emissions_f_0_17.1" vType="DEFAULT_VEHTYPE" speedFactor="0.89" vaporized="">
        <emissions CO_abs="2943.940414" CO2_abs="310982.865141" HC_abs="20.366206" PMx_abs="3.736756" NOx_abs="113.962823" fuel_abs="99190.214986" electricity_abs="0"/>
    </tripinfo>
    <tripinfo id="f_0_17.2" depart="7.00" departLane="D6D5_0" departPos="5.10" departSpeed="0.00" departDelay="2.00" arrival="137.00" arrivalLane="D4D3_0" arrivalPos="491.30" arrivalSpeed="13.21" duration="130.00" routeLength="1493.50" waitingTime="0.00" waitingCount="0" stopTime="0.00" timeLoss="31.21" rerouteNo="0" devices="tripinfo_f_0_17.2 emissions_f_0_17.2" vType="DEFAULT_VEHTYPE" speedFactor="1.09" vaporized="">
        <emissions CO_abs="3962.250081" CO2_abs="331638.224206" HC_abs="25.612087" PMx_abs="5.108817" NOx_abs="129.738246" fuel_abs="105777.552257" electricity_abs="0"/>
    </tripinfo>
    <tripinfo id="f_0_17.3" depart="12.00" departLane="D6D5_0" departPos="5.10" departSpeed="0.00" departDelay="0.00" arrival="156.00" arrivalLane="D4D3_0" arrivalPos="491.30" arrivalSpeed="14.79" duration="144.00" routeLength="1493.50" waitingTime="22.00" waitingCount="1" stopTime="0.00" timeLoss="48.96" rerouteNo="0" devices="tripinfo_f_0_17.3 emissions_f_0_17.3" vType="DEFAULT_VEHTYPE" speedFactor="1.13" vaporized="">
        <emissions CO_abs="8035.207310" CO2_abs="420298.734911" HC_abs="45.579055" PMx_abs="7.089729" NOx_abs="167.129183" fuel_abs="134057.429925" electricity_abs="0"/>
    </tripinfo>
    <tripinfo id="f_0_17.4" depart="22.00" departLane="D6D5_0" departPos="5.10" departSpeed="0.00" departDelay="0.00" arrival="158.00" arrivalLane="D4D3_0" arrivalPos="491.30" arrivalSpeed="15.81" duration="136.00" routeLength="1493.50" waitingTime="22.00" waitingCount="1" stopTime="0.00" timeLoss="44.34" rerouteNo="0" devices="tripinfo_f_0_17.4 emissions_f_0_17.4" vType="DEFAULT_VEHTYPE" speedFactor="1.18" vaporized="">
        <emissions CO_abs="7804.483040" CO2_abs="411878.773117" HC_abs="44.404779" PMx_abs="7.088152" NOx_abs="163.558770" fuel_abs="131371.659682" electricity_abs="0"/>
    </tripinfo>
    <tripinfo id="f_0_17.5" depart="25.00" departLane="D6D5_0" departPos="5.10" departSpeed="0.00" departDelay="2.00" arrival="161.00" arrivalLane="D4D3_0" arrivalPos="491.30" arrivalSpeed="14.79" duration="136.00" routeLength="1493.50" waitingTime="21.00" waitingCount="1" stopTime="0.00" timeLoss="37.97" rerouteNo="0" devices="tripinfo_f_0_17.5 emissions_f_0_17.5" vType="DEFAULT_VEHTYPE" speedFactor="1.10" vaporized="">
        <emissions CO_abs="7086.023871" CO2_abs="389488.148416" HC_abs="40.410296" PMx_abs="6.294039" NOx_abs="151.287813" fuel_abs="124230.297761" electricity_abs="0"/>
    </tripinfo>
    <tripinfo id="f_0_17.6" depart="29.00" departLane="D6D5_0" departPos="5.10" departSpeed="0.00" departDelay="0.00" arrival="163.00" arrivalLane="D4D3_0" arrivalPos="491.30" arrivalSpeed="14.78" duration="134.00" routeLength="1493.50" waitingTime="14.00" waitingCount="1" stopTime="0.00" timeLoss="35.09" rerouteNo="0" devices="tripinfo_f_0_17.6 emissions_f_0_17.6" vType="DEFAULT_VEHTYPE" speedFactor="1.09" vaporized="">
        <emissions CO_abs="7003.138041" CO2_abs="406985.303858" HC_abs="40.450959" PMx_abs="6.677190" NOx_abs="159.339734" fuel_abs="129810.741805" electricity_abs="0"/>
    </tripinfo>
    <tripinfo id="f_0_16.1" depart="4.00" departLane="D2D3_0" departPos="5.10" departSpeed="0.00" departDelay="2.00" arrival="169.00" arrivalLane="D4D5_0" arrivalPos="492.80" arrivalSpeed="11.13" duration="165.00" routeLength="1494.90" waitingTime="21.00" waitingCount="1" stopTime="0.00" timeLoss="34.71" rerouteNo="0" devices="tripinfo_f_0_16.1 emissions_f_0_16.1" vType="DEFAULT_VEHTYPE" speedFactor="0.83" vaporized="">
        <emissions CO_abs="7388.173674" CO2_abs="374193.657472" HC_abs="42.192933" PMx_abs="5.584000" NOx_abs="145.678264" fuel_abs="119352.856140" electricity_abs="0"/>
    </tripinfo>
    <tripinfo id="f_0_8.3" depart="9.00" departLane="G5G6_0" departPos="5.10" departSpeed="0.00" departDelay="2.00" arrival="170.00" arrivalLane="G7G8_0" arrivalPos="491.30" arrivalSpeed="11.88" duration="161.00" routeLength="1493.50" waitingTime="30.00" waitingCount="1" stopTime="0.00" timeLoss="44.87" rerouteNo="0" devices="tripinfo_f_0_8.3 emissions_f_0_8.3" vType="DEFAULT_VEHTYPE" speedFactor="0.93" vaporized="">
        <emissions CO_abs="8394.870429" CO2_abs="394492.495125" HC_abs="47.010820" PMx_abs="6.143664" NOx_abs="154.094128" fuel_abs="125827.512341" electricity_abs="0"/>
    </tripinfo>
    <tripinfo id="f_0_16.2" depart="7.00" departLane="D2D3_0" departPos="5.10" departSpeed="0.00" departDelay="0.00" arrival="170.00" arrivalLane="D4D5_0" arrivalPos="492.80" arrivalSpeed="12.13" duration="163.00" routeLength="1494.90" waitingTime="19.00" waitingCount="1" stopTime="0.00" timeLoss="40.43" rerouteNo="0" devices="tripinfo_f_0_16.2 emissions_f_0_16.2" vType="DEFAULT_VEHTYPE" speedFactor="0.88" vaporized="">
        <emissions CO_abs="8187.899872" CO2_abs="411414.399606" HC_abs="46.758951" PMx_abs="6.662704" NOx_abs="163.935750" fuel_abs="131224.192749" electricity_abs="0"/>
    </tripinfo>
    <tripinfo id="f_0_16.3" depart="10.00" departLane="D2D3_0" departPos="5.10" departSpeed="0.00" departDelay="1.00" arrival="172.00" arrivalLane="D4D5_0" arrivalPos="492.80" arrivalSpeed="12.26" duration="162.00" routeLength="1494.90" waitingTime="19.00" waitingCount="1" stopTime="0.00" timeLoss="46.75" rerouteNo="0" devices="tripinfo_f_0_16.3 emissions_f_0_16.3" vType="DEFAULT_VEHTYPE" speedFactor="0.94" vaporized="">
        <emissions CO_abs="8396.133036" CO2_abs="420899.552607" HC_abs="47.934137" PMx_abs="7.171817" NOx_abs="170.105515" fuel_abs="134249.163566" electricity_abs="0"/>
    </tripinfo>
    <tripinfo id="f_0_8.4" depart="12.00" departLane="G5G6_0" departPos="5.10" departSpeed="0.00" departDelay="2.00" arrival="172.00" arrivalLane="G7G8_0" arrivalPos="491.30" arrivalSpeed="13.88" duration="160.00" routeLength="1493.50" waitingTime="29.00" waitingCount="1" stopTime="0.00" timeLoss="53.82" rerouteNo="0" devices="tripinfo_f_0_8.4 emissions_f_0_8.4" vType="DEFAULT_VEHTYPE" speedFactor="1.02" vaporized="">
        <emissions CO_abs="9112.360048" CO2_abs="418198.679236" HC_abs="50.867072" PMx_abs="7.191522" NOx_abs="168.088396" fuel_abs="133388.167287" electricity_abs="0"/>
    </tripinfo>
    <tripinfo id="f_0_9.1" depart="5.00" departLane="G9G8_0" departPos="5.10" departSpeed="0.00" departDelay="0.00" arrival="173.00" arrivalLane="G7G6_0" arrivalPos="492.80" arrivalSpeed="11.40" duration="168.00" routeLength="1494.90" waitingTime="29.00" waitingCount="1" stopTime="0.00" timeLoss="41.81" rerouteNo="0" devices="tripinfo_f_0_9.1 emissions_f_0_9.1" vType="DEFAULT_VEHTYPE" speedFactor="0.86" vaporized="">
        <emissions CO_abs="8721.011540" CO2_abs="401304.369610" HC_abs="48.817947" PMx_abs="6.395038" NOx_abs="158.655510" fuel_abs="128000.139382" electricity_abs="0"/>
    </tripinfo>
    <tripinfo id="f_0_9.2" depart="8.00" departLane="G9G8_0" departPos="5.10" departSpeed="0.00" departDelay="2.00" arrival="174.00" arrivalLane="G7G6_0" arrivalPos="492.80" arrivalSpeed="14.25" duration="166.00" routeLength="1494.90" waitingTime="27.00" waitingCount="1" stopTime="0.00" timeLoss="63.15" rerouteNo="0" devices="tripinfo_f_0_9.2 emissions_f_0_9.2" vType="DEFAULT_VEHTYPE" speedFactor="1.05" vaporized="">
        <emissions CO_abs="9839.857674" CO2_abs="458071.195903" HC_abs="55.311879" PMx_abs="8.054965" NOx_abs="186.414163" fuel_abs="146105.536238" electricity_abs="0"/>
    </tripinfo>
    <tripinfo id="f_0_16.4" depart="13.00" departLane="D2D3_0" departPos="5.10" departSpeed="0.00" departDelay="1.00" arrival="174.00" arrivalLane="D4D5_0" arrivalPos="492.80" arrivalSpeed="12.10" duration="161.00" routeLength="1494.90" waitingTime="18.00" waitingCount="1" stopTime="0.00" timeLoss="47.16" rerouteNo="0" devices="tripinfo_f_0_16.4 emissions_f_0_16.4" vType="DEFAULT_VEHTYPE" speedFactor="0.95" vaporized="">
        <emissions CO_abs="8316.834640" CO2_abs="417311.044299" HC_abs="47.456037" PMx_abs="7.239408" NOx_abs="169.271632" fuel_abs="133104.446626" electricity_abs="0"/>
    </tripinfo>
    <tripinfo id="f_0_8.5" depart="15.00" departLane="G5G6_0" departPos="5.10" departSpeed="0.00" departDelay="4.00" arrival="175.00" arrivalLane="G7G8_0" arrivalPos="491.30" arrivalSpeed="12.00" duration="160.00" routeLength="1493.50" waitingTime="24.00" waitingCount="1" stopTime="0.00" timeLoss="38.83" rerouteNo="0" devices="tripinfo_f_0_8.5 emissions_f_0_8.5" vType="DEFAULT_VEHTYPE" speedFactor="0.89" vaporized="">
        <emissions CO_abs="8021.022926" CO2_abs="400385.197803" HC_abs="45.493939" PMx_abs="6.228882" NOx_abs="156.719815" fuel_abs="127706.736735" electricity_abs="0"/>
    </tripinfo>
    <tripinfo id="f_0_9.3" depart="11.00" departLane="G9G8_0" departPos="5.10" departSpeed="0.00" departDelay="1.00" arrival="176.00" arrivalLane="G7G6_0" arrivalPos="492.80" arrivalSpeed="13.67" duration="165.00" routeLength="1494.90" waitingTime="26.00" waitingCount="1" stopTime="0.00" timeLoss="58.13" rerouteNo="0" devices="tripinfo_f_0_9.3 emissions_f_0_9.3" vType="DEFAULT_VEHTYPE" speedFactor="1.01" vaporized="">
        <emissions CO_abs="9794.330388" CO2_abs="460097.151567" HC_abs="55.082853" PMx_abs="8.045351" NOx_abs="186.689788" fuel_abs="146751.719412" electricity_abs="0"/>
    </tripinfo>
    <tripinfo id="f_0_16.5" depart="16.00" departLane="D2D3_0" departPos="5.10" departSpeed="0.00" departDelay="1.00" arrival="176.00" arrivalLane="D4D5_0" arrivalPos="492.80" arrivalSpeed="15.68" duration="160.00" routeLength="1494.90" waitingTime="16.00" waitingCount="1" stopTime="0.00" timeLoss="65.94" rerouteNo="0" devices="tripinfo_f_0_16.5 emissions_f_0_16.5" vType="DEFAULT_VEHTYPE" speedFactor="1.15" vaporized="">
        <emissions CO_abs="9182.441651" CO2_abs="461786.777282" HC_abs="52.557583" PMx_abs="8.414396" NOx_abs="190.271249" fuel_abs="147289.810702" electricity_abs="0"/>
    </tripinfo>
    <tripinfo id="f_0_8.6" depart="18.00" departLane="G5G6_0" departPos="5.10" departSpeed="0.00" departDelay="6.00" arrival="178.00" arrivalLane="G7G8_0" arrivalPos="491.30" arrivalSpeed="11.10" duration="160.00" routeLength="1493.50" waitingTime="18.00" waitingCount="1" stopTime="0.00" timeLoss="36.23" rerouteNo="0" devices="tripinfo_f_0_8.6 emissions_f_0_8.6" vType="DEFAULT_VEHTYPE" speedFactor="0.87" vaporized="">
        <emissions CO_abs="7429.510558" CO2_abs="385619.470244" HC_abs="42.610108" PMx_abs="6.008229" NOx_abs="151.654746" fuel_abs="122996.824590" electricity_abs="0"/>
    </tripinfo>
    <tripinfo id="f_0_9.4" depart="14.00" departLane="G9G8_0" departPos="5.10" departSpeed="0.00" departDelay="2.00" arrival="178.00" arrivalLane="G7G6_0" arrivalPos="492.80" arrivalSpeed="11.86" duration="164.00" routeLength="1494.90" waitingTime="26.00" waitingCount="1" stopTime="0.00" timeLoss="46.34" rerouteNo="0" devices="tripinfo_f_0_9.4 emissions_f_0_9.4" vType="DEFAULT_VEHTYPE" speedFactor="0.92" vaporized="">
        <emissions CO_abs="9141.048761" CO2_abs="433316.008578" HC_abs="51.453003" PMx_abs="7.177190" NOx_abs="172.873756" fuel_abs="138210.097843" electricity_abs="0"/>
    </tripinfo>
    <tripinfo id="f_0_16.6" depart="24.00" departLane="D2D3_0" departPos="5.10" departSpeed="0.00" departDelay="0.00" arrival="178.00" arrivalLane="D4D5_0" arrivalPos="492.80" arrivalSpeed="11.96" duration="154.00" routeLength="1494.90" waitingTime="13.00" waitingCount="1" stopTime="0.00" timeLoss="33.85" rerouteNo="0" devices="tripinfo_f_0_16.6 emissions_f_0_16.6" vType="DEFAULT_VEHTYPE" speedFactor="0.90" vaporized="">
        <emissions CO_abs="7222.646102" CO2_abs="414077.141960" HC_abs="42.274870" PMx_abs="6.633533" NOx_abs="164.022780" fuel_abs="132072.957290" electricity_abs="0"/>
    </tripinfo>
    <tripinfo id="f_0_8.7" depart="21.00" departLane="G5G6_0" departPos="5.10" departSpeed="0.00" departDelay="6.00" arrival="179.00" arrivalLane="G7G8_0" arrivalPos="491.30" arrivalSpeed="13.94" duration="158.00" routeLength="1493.50" waitingTime="17.00" waitingCount="1" stopTime="0.00" timeLoss="66.75" rerouteNo="0" devices="tripinfo_f_0_8.7 emissions_f_0_8.7" vType="DEFAULT_VEHTYPE" speedFactor="1.18" vaporized="">
        <emissions CO_abs="8469.312980" CO2_abs="435258.680505" HC_abs="48.691949" PMx_abs="7.560639" NOx_abs="176.781613" fuel_abs="138828.829355" electricity_abs="0"/>
    </tripinfo>
    <tripinfo id="f_0_9.5" depart="17.00" departLane="G9G8_0" departPos="5.10" departSpeed="0.00" departDelay="4.00" arrival="180.00" arrivalLane="G7G6_0" arrivalPos="492.80" arrivalSpeed="12.22" duration="163.00" routeLength="1494.90" waitingTime="26.00" waitingCount="1" stopTime="0.00" timeLoss="46.82" rerouteNo="0" devices="tripinfo_f_0_9.5 emissions_f_0_9.5" vType="DEFAULT_VEHTYPE" speedFactor="0.93" vaporized="">
        <emissions CO_abs="8888.560508" CO2_abs="434514.096322" HC_abs="50.177518" PMx_abs="7.021653" NOx_abs="171.872841" fuel_abs="138592.269534" electricity_abs="0"/>
    </tripinfo>
    <tripinfo id="f_0_16.7" depart="27.00" departLane="D2D3_0" departPos="5.10" departSpeed="0.00" departDelay="1.00" arrival="180.00" arrivalLane="D4D5_0" arrivalPos="492.80" arrivalSpeed="14.63" duration="153.00" routeLength="1494.90" waitingTime="12.00" waitingCount="1" stopTime="0.00" timeLoss="53.55" rerouteNo="0" devices="tripinfo_f_0_16.7 emissions_f_0_16.7" vType="DEFAULT_VEHTYPE" speedFactor="1.09" vaporized="">
        <emissions CO_abs="8108.259364" CO2_abs="438670.696784" HC_abs="46.994717" PMx_abs="7.926163" NOx_abs="180.075958" fuel_abs="139916.476773" electricity_abs="0"/>
    </tripinfo>
    <tripinfo id="f_0_17.7" depart="32.00" departLane="D6D5_0" departPos="5.10" departSpeed="0.00" departDelay="2.00" arrival="180.00" arrivalLane="D4D3_0" arrivalPos="491.30" arrivalSpeed="11.47" duration="148.00" routeLength="1493.50" waitingTime="4.00" waitingCount="1" stopTime="0.00" timeLoss="20.65" rerouteNo="0" devices="tripinfo_f_0_17.7 emissions_f_0_17.7" vType="DEFAULT_VEHTYPE" speedFactor="0.85" vaporized="">
        <emissions CO_abs="4880.635855" CO2_abs="338449.363677" HC_abs="29.822720" PMx_abs="4.749685" NOx_abs="129.404574" fuel_abs="107951.078587" electricity_abs="0"/>
    </tripinfo>
    <tripinfo id="f_0_16.8" depart="30.00" departLane="D2D3_0" departPos="5.10" departSpeed="0.00" departDelay="2.00" arrival="181.00" arrivalLane="D4D5_0" arrivalPos="492.80" arrivalSpeed="14.32" duration="151.00" routeLength="1494.90" waitingTime="11.00" waitingCount="1" stopTime="0.00" timeLoss="47.59" rerouteNo="0" devices="tripinfo_f_0_16.8 emissions_f_0_16.8" vType="DEFAULT_VEHTYPE" speedFactor="1.04" vaporized="">
        <emissions CO_abs="8337.141320" CO2_abs="465892.980780" HC_abs="48.662082" PMx_abs="8.390554" NOx_abs="190.979101" fuel_abs="148599.026180" electricity_abs="0"/>
    </tripinfo>
    <tripinfo id="f_0_8.8" depart="32.00" departLane="G5G6_0" departPos="5.10" departSpeed="0.00" departDelay="0.00" arrival="181.00" arrivalLane="G7G8_0" arrivalPos="491.30" arrivalSpeed="12.64" duration="149.00" routeLength="1493.50" waitingTime="13.00" waitingCount="1" stopTime="0.00" timeLoss="41.55" rerouteNo="0" devices="tripinfo_f_0_8.8 emissions_f_0_8.8" vType="DEFAULT_VEHTYPE" speedFactor="1.00" vaporized="">
        <emissions CO_abs="7484.502419" CO2_abs="415748.890395" HC_abs="43.392651" PMx_abs="7.009449" NOx_abs="166.615867" fuel_abs="132605.915182" electricity_abs="0"/>
    </tripinfo>
    <tripinfo id="f_0_17.8" depart="35.00" departLane="D6D5_0" departPos="5.10" departSpeed="0.00" departDelay="2.00" arrival="181.00" arrivalLane="D4D3_0" arrivalPos="491.30" arrivalSpeed="13.36" duration="146.00" routeLength="1493.50" waitingTime="3.00" waitingCount="1" stopTime="0.00" timeLoss="51.67" rerouteNo="0" devices="tripinfo_f_0_17.8 emissions_f_0_17.8" vType="DEFAULT_VEHTYPE" speedFactor="1.14" vaporized="">
        <emissions CO_abs="6111.041496" CO2_abs="381836.438418" HC_abs="36.723367" PMx_abs="6.412659" NOx_abs="153.858644" fuel_abs="121788.823495" electricity_abs="0"/>
    </tripinfo>
    <tripinfo id="f_0_9.6" depart="20.00" departLane="G9G8_0" departPos="5.10" departSpeed="0.00" departDelay="1.00" arrival="182.00" arrivalLane="G7G6_0" arrivalPos="492.80" arrivalSpeed="12.70" duration="162.00" routeLength="1494.90" waitingTime="26.00" waitingCount="2" stopTime="0.00" timeLoss="52.97" rerouteNo="0" devices="tripinfo_f_0_9.6 emissions_f_0_9.6" vType="DEFAULT_VEHTYPE" speedFactor="0.99" vaporized="">
        <emissions CO_abs="9869.546784" CO2_abs="465866.098667" HC_abs="55.466474" PMx_abs="8.163587" NOx_abs="188.563054" fuel_abs="148591.738504" electricity_abs="0"/>
    </tripinfo>
    <tripinfo id="f_0_0.0" depart="5.00" departLane="A7B7_0" departPos="5.10" departSpeed="0.00" departDelay="0.00" arrival="183.00" arrivalLane="D7E7_0" arrivalPos="492.80" arrivalSpeed="12.86" duration="178.00" routeLength="1994.90" waitingTime="9.00" waitingCount="1" stopTime="0.00" timeLoss="24.13" rerouteNo="0" devices="tripinfo_f_0_0.0 emissions_f_0_0.0" vType="DEFAULT_VEHTYPE" speedFactor="0.94" vaporized="">
        <emissions CO_abs="5421.757855" CO2_abs="428846.630985" HC_abs="33.723733" PMx_abs="5.818092" NOx_abs="160.335346" fuel_abs="136783.825909" electricity_abs="0"/>
    </tripinfo>
    <tripinfo id="f_0_9.7" depart="25.00" departLane="G9G8_0" departPos="5.10" departSpeed="0.00" departDelay="0.00" arrival="183.00" arrivalLane="G7G6_0" arrivalPos="492.80" arrivalSpeed="13.81" duration="158.00" routeLength="1494.90" waitingTime="24.00" waitingCount="2" stopTime="0.00" timeLoss="53.32" rerouteNo="0" devices="tripinfo_f_0_9.7 emissions_f_0_9.7" vType="DEFAULT_VEHTYPE" speedFactor="1.03" vaporized="">
        <emissions CO_abs="9617.470123" CO2_abs="459135.180094" HC_abs="54.218475" PMx_abs="8.001058" NOx_abs="185.216605" fuel_abs="146444.866224" electricity_abs="0"/>
    </tripinfo>
    <tripinfo id="f_0_17.9" depart="38.00" departLane="D6D5_0" departPos="5.10" departSpeed="0.00" departDelay="4.00" arrival="183.00" arrivalLane="D4D3_0" arrivalPos="491.30" arrivalSpeed="12.84" duration="145.00" routeLength="1493.50" waitingTime="2.00" waitingCount="1" stopTime="0.00" timeLoss="33.52" rerouteNo="0" devices="tripinfo_f_0_17.9 emissions_f_0_17.9" vType="DEFAULT_VEHTYPE" speedFactor="0.97" vaporized="">
        <emissions CO_abs="6173.311454" CO2_abs="391069.783149" HC_abs="37.164495" PMx_abs="6.565131" NOx_abs="157.240025" fuel_abs="124733.818141" electricity_abs="0"/>
    </tripinfo>
    <tripinfo id="f_0_8.9" depart="38.00" departLane="G5G6_0" departPos="5.10" departSpeed="0.00" departDelay="0.00" arrival="183.00" arrivalLane="G7G8_0" arrivalPos="491.30" arrivalSpeed="11.80" duration="145.00" routeLength="1493.50" waitingTime="6.00" waitingCount="1" stopTime="0.00" timeLoss="27.22" rerouteNo="0" devices="tripinfo_f_0_8.9 emissions_f_0_8.9" vType="DEFAULT_VEHTYPE" speedFactor="0.91" vaporized="">
        <emissions CO_abs="5737.263778" CO2_abs="373563.753892" HC_abs="34.647511" PMx_abs="5.831178" NOx_abs="147.007920" fuel_abs="119150.595666" electricity_abs="0"/>
    </tripinfo>
    <tripinfo id="f_0_0.1" depart="8.00" departLane="A7B7_0" departPos="5.10" departSpeed="0.00" departDelay="1.00" arrival="184.00" arrivalLane="D7E7_0" arrivalPos="492.80" arrivalSpeed="14.95" duration="176.00" routeLength="1994.90" waitingTime="6.00" waitingCount="1" stopTime="0.00" timeLoss="47.89" rerouteNo="0" devices="tripinfo_f_0_0.1 emissions_f_0_0.1" vType="DEFAULT_VEHTYPE" speedFactor="1.12" vaporized="">
        <emissions CO_abs="6926.433680" CO2_abs="487481.350948" HC_abs="42.586894" PMx_abs="7.824761" NOx_abs="191.938413" fuel_abs="155484.832944" electricity_abs="0"/>
    </tripinfo>
    <tripinfo id="f_0_16.9" depart="33.00" departLane="D2D3_0" departPos="5.10" departSpeed="0.00" departDelay="3.00" arrival="184.00" arrivalLane="D4D5_0" arrivalPos="492.80" arrivalSpeed="11.78" duration="151.00" routeLength="1494.90" waitingTime="6.00" waitingCount="1" stopTime="0.00" timeLoss="27.37" rerouteNo="0" devices="tripinfo_f_0_16.9 emissions_f_0_16.9" vType="DEFAULT_VEHTYPE" speedFactor="0.88" vaporized="">
        <emissions CO_abs="6475.347785" CO2_abs="399258.009405" HC_abs="38.624706" PMx_abs="6.320761" NOx_abs="157.887362" fuel_abs="127346.057096" electricity_abs="0"/>
    </tripinfo>
    <tripinfo id="f_0_9.8" depart="28.00" departLane="G9G8_0" departPos="5.10" departSpeed="0.00" departDelay="0.00" arrival="185.00" arrivalLane="G7G6_0" arrivalPos="492.80" arrivalSpeed="14.01" duration="157.00" routeLength="1494.90" waitingTime="21.00" waitingCount="2" stopTime="0.00" timeLoss="52.65" rerouteNo="0" devices="tripinfo_f_0_9.8 emissions_f_0_9.8" vType="DEFAULT_VEHTYPE" speedFactor="1.04" vaporized="">
        <emissions CO_abs="9612.858795" CO2_abs="460259.831330" HC_abs="54.244815" PMx_abs="8.219486" NOx_abs="187.311545" fuel_abs="146803.313796" electricity_abs="0"/>
    </tripinfo>
    <tripinfo id="f_0_8.10" depart="47.00" departLane="G5G6_0" departPos="5.10" departSpeed="0.00" departDelay="0.00" arrival="185.00" arrivalLane="G7G8_0" arrivalPos="491.30" arrivalSpeed="13.70" duration="138.00" routeLength="1493.50" waitingTime="1.00" waitingCount="1" stopTime="0.00" timeLoss="31.61" rerouteNo="0" devices="tripinfo_f_0_8.10 emissions_f_0_8.10" vType="DEFAULT_VEHTYPE" speedFactor="1.02" vaporized="">
        <emissions CO_abs="5789.175214" CO2_abs="395301.254727" HC_abs="35.453240" PMx_abs="6.678836" NOx_abs="158.905580" fuel_abs="126083.130150" electricity_abs="0"/>
    </tripinfo>
    <tripinfo id="f_0_0.2" depart="11.00" departLane="A7B7_0" departPos="5.10" departSpeed="0.00" departDelay="3.00" arrival="186.00" arrivalLane="D7E7_0" arrivalPos="492.80" arrivalSpeed="12.35" duration="175.00" routeLength="1994.90" waitingTime="5.00" waitingCount="1" stopTime="0.00" timeLoss="22.37" rerouteNo="0" devices="tripinfo_f_0_0.2 emissions_f_0_0.2" vType="DEFAULT_VEHTYPE" speedFactor="0.94" vaporized="">
        <emissions CO_abs="5022.267720" CO2_abs="430213.108774" HC_abs="32.163282" PMx_abs="5.715292" NOx_abs="160.537013" fuel_abs="137219.522435" electricity_abs="0"/>
    </tripinfo>
    <tripinfo id="f_0_9.9" depart="31.00" departLane="G9G8_0" departPos="5.10" departSpeed="0.00" departDelay="1.00" arrival="187.00" arrivalLane="G7G6_0" arrivalPos="492.80" arrivalSpeed="11.78" duration="156.00" routeLength="1494.90" waitingTime="12.00" waitingCount="2" stopTime="0.00" timeLoss="36.22" rerouteNo="0" devices="tripinfo_f_0_9.9 emissions_f_0_9.9" vType="DEFAULT_VEHTYPE" speedFactor="0.90" vaporized="">
        <emissions CO_abs="7093.866841" CO2_abs="399562.394363" HC_abs="41.303584" PMx_abs="6.209506" NOx_abs="156.683317" fuel_abs="127443.698212" electricity_abs="0"/>
    </tripinfo>
    <tripinfo id="f_0_8.11" depart="51.00" departLane="G5G6_0" departPos="5.10" departSpeed="0.00" departDelay="0.00" arrival="187.00" arrivalLane="G7G8_0" arrivalPos="491.30" arrivalSpeed="13.51" duration="136.00" routeLength="1493.50" waitingTime="0.00" waitingCount="0" stopTime="0.00" timeLoss="25.05" rerouteNo="0" devices="tripinfo_f_0_8.11 emissions_f_0_8.11" vType="DEFAULT_VEHTYPE" speedFactor="0.98" vaporized="">
        <emissions CO_abs="5182.576711" CO2_abs="385038.477496" HC_abs="32.352102" PMx_abs="6.372549" NOx_abs="153.663703" fuel_abs="122809.638965" electricity_abs="0"/>
    </tripinfo>
    <tripinfo id="f_0_8.12" depart="54.00" departLane="G5G6_0" departPos="5.10" departSpeed="0.00" departDelay="2.00" arrival="188.00" arrivalLane="G7G8_0" arrivalPos="491.30" arrivalSpeed="13.78" duration="134.00" routeLength="1493.50" waitingTime="0.00" waitingCount="0" stopTime="0.00" timeLoss="30.79" rerouteNo="0" devices="tripinfo_f_0_8.12 emissions_f_0_8.12" vType="DEFAULT_VEHTYPE" speedFactor="1.04" vaporized="">
        <emissions CO_abs="5645.442366" CO2_abs="400970.335030" HC_abs="34.934006" PMx_abs="6.890232" NOx_abs="162.028646" fuel_abs="127891.029754" electricity_abs="0"/>
    </tripinfo>
    <tripinfo id="f_0_9.10" depart="34.00" departLane="G9G8_0" departPos="5.10" departSpeed="0.00" departDelay="1.00" arrival="189.00" arrivalLane="G7G6_0" arrivalPos="492.80" arrivalSpeed="11.94" duration="155.00" routeLength="1494.90" waitingTime="8.00" waitingCount="1" stopTime="0.00" timeLoss="34.89" rerouteNo="0" devices="tripinfo_f_0_9.10 emissions_f_0_9.10" vType="DEFAULT_VEHTYPE" speedFactor="0.90" vaporized="">
        <emissions CO_abs="6879.680236" CO2_abs="392791.070329" HC_abs="40.128948" PMx_abs="5.940418" NOx_abs="152.818135" fuel_abs="125284.065705" electricity_abs="0"/>
    </tripinfo>