<?xml version="1.0" encoding="UTF-8"?>

<!-- generated on 2024-08-22 13:48:47 by Eclipse SUMO sumo Version 1.17.0
<configuration xmlns:xsi="http://www.w3.org/2001/XMLSchema-instance" xsi:noNamespaceSchemaLocation="http://sumo.dlr.de/xsd/sumoConfiguration.xsd">

    <input>
        <net-file value="double_neat.net.xml"/>
        <route-files value="double_2.rou.xml"/>
    </input>

    <output>
        <tripinfo-output value="emissions_test\z402_pop_200_data_All_gen_300_2emissionsdouble.xml"/>
    </output>

    <processing>
        <time-to-teleport value="-1"/>
    </processing>

    <report>
        <no-warnings value="true"/>
    </report>

    <emissions>
        <device.emissions.probability value="1.0"/>
    </emissions>

    <traci_server>
        <remote-port value="58396"/>
    </traci_server>

</configuration>
-->

<tripinfos xmlns:xsi="http://www.w3.org/2001/XMLSchema-instance" xsi:noNamespaceSchemaLocation="http://sumo.dlr.de/xsd/tripinfo_file.xsd">
    <tripinfo id="f_0_14.0" depart="3.00" departLane="C2C3_0" departPos="5.10" departSpeed="0.00" departDelay="0.00" arrival="107.00" arrivalLane="C4C5_0" arrivalPos="492.80" arrivalSpeed="14.50" duration="104.00" routeLength="1494.90" waitingTime="0.00" waitingCount="0" stopTime="0.00" timeLoss="7.26" rerouteNo="0" devices="tripinfo_f_0_14.0 emissions_f_0_14.0" vType="DEFAULT_VEHTYPE" speedFactor="1.12" vaporized="">
        <emissions CO_abs="2435.662392" CO2_abs="295400.898814" HC_abs="17.103212" PMx_abs="4.161765" NOx_abs="108.795637" fuel_abs="94219.359000" electricity_abs="0"/>
    </tripinfo>
    <tripinfo id="f_0_2.0" depart="0.00" departLane="C5C6_0" departPos="5.10" departSpeed="0.00" departDelay="0.00" arrival="109.00" arrivalLane="C7C8_0" arrivalPos="491.30" arrivalSpeed="14.38" duration="109.00" routeLength="1493.50" waitingTime="0.00" waitingCount="0" stopTime="0.00" timeLoss="7.08" rerouteNo="0" devices="tripinfo_f_0_2.0 emissions_f_0_2.0" vType="DEFAULT_VEHTYPE" speedFactor="1.06" vaporized="">
        <emissions CO_abs="2462.866778" CO2_abs="283458.519593" HC_abs="17.062731" PMx_abs="3.966800" NOx_abs="104.853945" fuel_abs="90410.389289" electricity_abs="0"/>
    </tripinfo>
    <tripinfo id="f_0_10.0" depart="0.00" departLane="H5H6_0" departPos="5.10" departSpeed="0.00" departDelay="0.00" arrival="115.00" arrivalLane="H7H8_0" arrivalPos="491.30" arrivalSpeed="13.63" duration="115.00" routeLength="1493.50" waitingTime="0.00" waitingCount="0" stopTime="0.00" timeLoss="8.32" rerouteNo="0" devices="tripinfo_f_0_10.0 emissions_f_0_10.0" vType="DEFAULT_VEHTYPE" speedFactor="1.01" vaporized="">
        <emissions CO_abs="2231.341870" CO2_abs="287233.490983" HC_abs="15.781197" PMx_abs="3.452661" NOx_abs="102.308524" fuel_abs="91614.913230" electricity_abs="0"/>
    </tripinfo>
    <tripinfo id="f_0_16.0" depart="0.00" departLane="D2D3_0" departPos="5.10" departSpeed="0.00" departDelay="0.00" arrival="115.00" arrivalLane="D4D5_0" arrivalPos="492.80" arrivalSpeed="14.94" duration="115.00" routeLength="1494.90" waitingTime="1.00" waitingCount="1" stopTime="0.00" timeLoss="14.89" rerouteNo="0" devices="tripinfo_f_0_16.0 emissions_f_0_16.0" vType="DEFAULT_VEHTYPE" speedFactor="1.08" vaporized="">
        <emissions CO_abs="3792.825104" CO2_abs="328252.879310" HC_abs="24.291996" PMx_abs="5.086284" NOx_abs="126.096874" fuel_abs="104697.739365" electricity_abs="0"/>
    </tripinfo>
    <tripinfo id="f_0_17.0" depart="1.00" departLane="D6D5_0" departPos="5.10" departSpeed="0.00" departDelay="0.00" arrival="115.00" arrivalLane="D4D3_0" arrivalPos="491.30" arrivalSpeed="13.79" duration="114.00" routeLength="1493.50" waitingTime="0.00" waitingCount="0" stopTime="0.00" timeLoss="10.27" rerouteNo="0" devices="tripinfo_f_0_17.0 emissions_f_0_17.0" vType="DEFAULT_VEHTYPE" speedFactor="1.05" vaporized="">
        <emissions CO_abs="3132.998171" CO2_abs="317827.926367" HC_abs="21.279455" PMx_abs="4.767013" NOx_abs="121.208493" fuel_abs="101372.530508" electricity_abs="0"/>
    </tripinfo>
    <tripinfo id="f_0_10.1" depart="9.00" departLane="H5H6_0" departPos="5.10" departSpeed="0.00" departDelay="0.00" arrival="117.00" arrivalLane="H7H8_0" arrivalPos="491.30" arrivalSpeed="15.66" duration="108.00" routeLength="1493.50" waitingTime="0.00" waitingCount="0" stopTime="0.00" timeLoss="16.10" rerouteNo="0" devices="tripinfo_f_0_10.1 emissions_f_0_10.1" vType="DEFAULT_VEHTYPE" speedFactor="1.18" vaporized="">
        <emissions CO_abs="3183.835098" CO2_abs="315893.964988" HC_abs="21.277461" PMx_abs="4.918669" NOx_abs="121.042158" fuel_abs="100755.502765" electricity_abs="0"/>
    </tripinfo>
    <tripinfo id="f_0_16.1" depart="3.00" departLane="D2D3_0" departPos="5.10" departSpeed="0.00" departDelay="0.00" arrival="120.00" arrivalLane="D4D5_0" arrivalPos="492.80" arrivalSpeed="13.52" duration="117.00" routeLength="1494.90" waitingTime="0.00" waitingCount="0" stopTime="0.00" timeLoss="7.90" rerouteNo="0" devices="tripinfo_f_0_16.1 emissions_f_0_16.1" vType="DEFAULT_VEHTYPE" speedFactor="0.99" vaporized="">
        <emissions CO_abs="2381.943050" CO2_abs="287489.082826" HC_abs="16.743837" PMx_abs="3.660625" NOx_abs="105.012442" fuel_abs="91696.265533" electricity_abs="0"/>
    </tripinfo>
    <tripinfo id="f_0_14.1" depart="10.00" departLane="C2C3_0" departPos="5.10" departSpeed="0.00" departDelay="0.00" arrival="121.00" arrivalLane="C4C5_0" arrivalPos="492.80" arrivalSpeed="16.26" duration="111.00" routeLength="1494.90" waitingTime="5.00" waitingCount="1" stopTime="0.00" timeLoss="19.01" rerouteNo="0" devices="tripinfo_f_0_14.1 emissions_f_0_14.1" vType="DEFAULT_VEHTYPE" speedFactor="1.17" vaporized="">
        <emissions CO_abs="4376.781778" CO2_abs="336603.038978" HC_abs="27.207636" PMx_abs="5.427353" NOx_abs="129.687798" fuel_abs="107361.196190" electricity_abs="0"/>
    </tripinfo>
    <tripinfo id="f_0_9.0" depart="3.00" departLane="G9G8_0" departPos="5.10" departSpeed="0.00" departDelay="0.00" arrival="122.00" arrivalLane="G7G6_0" arrivalPos="492.80" arrivalSpeed="13.21" duration="119.00" routeLength="1494.90" waitingTime="0.00" waitingCount="0" stopTime="0.00" timeLoss="13.95" rerouteNo="0" devices="tripinfo_f_0_9.0 emissions_f_0_9.0" vType="DEFAULT_VEHTYPE" speedFactor="1.03" vaporized="">
        <emissions CO_abs="3266.490250" CO2_abs="318309.673029" HC_abs="21.828644" PMx_abs="4.526026" NOx_abs="119.799255" fuel_abs="101526.547230" electricity_abs="0"/>
    </tripinfo>
    <tripinfo id="f_0_5.0" depart="0.00" departLane="D9D8_0" departPos="5.10" departSpeed="0.00" departDelay="0.00" arrival="124.00" arrivalLane="D7D6_0" arrivalPos="492.80" arrivalSpeed="12.85" duration="124.00" routeLength="1494.90" waitingTime="0.00" waitingCount="0" stopTime="0.00" timeLoss="8.81" rerouteNo="0" devices="tripinfo_f_0_5.0 emissions_f_0_5.0" vType="DEFAULT_VEHTYPE" speedFactor="0.94" vaporized="">
        <emissions CO_abs="2545.360204" CO2_abs="297758.287994" HC_abs="17.731125" PMx_abs="3.575365" NOx_abs="107.792028" fuel_abs="94971.999464" electricity_abs="0"/>
    </tripinfo>
    <tripinfo id="f_0_9.1" depart="6.00" departLane="G9G8_0" departPos="5.10" departSpeed="0.00" departDelay="0.00" arrival="124.00" arrivalLane="G7G6_0" arrivalPos="492.80" arrivalSpeed="13.95" duration="118.00" routeLength="1494.90" waitingTime="0.00" waitingCount="0" stopTime="0.00" timeLoss="11.39" rerouteNo="0" devices="tripinfo_f_0_9.1 emissions_f_0_9.1" vType="DEFAULT_VEHTYPE" speedFactor="1.01" vaporized="">
        <emissions CO_abs="3053.542126" CO2_abs="324905.616907" HC_abs="20.628533" PMx_abs="4.386452" NOx_abs="120.361419" fuel_abs="103630.425642" electricity_abs="0"/>
    </tripinfo>
    <tripinfo id="f_0_3.0" depart="11.00" departLane="C9C8_0" departPos="5.10" departSpeed="0.00" departDelay="0.00" arrival="125.00" arrivalLane="C7C6_0" arrivalPos="492.80" arrivalSpeed="13.36" duration="114.00" routeLength="1494.90" waitingTime="0.00" waitingCount="0" stopTime="0.00" timeLoss="8.29" rerouteNo="0" devices="tripinfo_f_0_3.0 emissions_f_0_3.0" vType="DEFAULT_VEHTYPE" speedFactor="1.02" vaporized="">
        <emissions CO_abs="2496.282188" CO2_abs="292318.365100" HC_abs="17.308809" PMx_abs="3.860583" NOx_abs="107.144903" fuel_abs="93236.508046" electricity_abs="0"/>
    </tripinfo>
    <tripinfo id="f_0_14.2" depart="13.00" departLane="C2C3_0" departPos="5.10" departSpeed="0.00" departDelay="1.00" arrival="125.00" arrivalLane="C4C5_0" arrivalPos="492.80" arrivalSpeed="13.93" duration="112.00" routeLength="1494.90" waitingTime="0.00" waitingCount="0" stopTime="0.00" timeLoss="12.87" rerouteNo="0" devices="tripinfo_f_0_14.2 emissions_f_0_14.2" vType="DEFAULT_VEHTYPE" speedFactor="1.09" vaporized="">
        <emissions CO_abs="3336.708561" CO2_abs="330752.372308" HC_abs="21.704521" PMx_abs="4.734812" NOx_abs="123.096235" fuel_abs="105495.074240" electricity_abs="0"/>
    </tripinfo>
    <tripinfo id="f_0_2.1" depart="3.00" departLane="C5C6_0" departPos="5.10" departSpeed="0.00" departDelay="2.00" arrival="126.00" arrivalLane="C7C8_0" arrivalPos="491.30" arrivalSpeed="14.19" duration="123.00" routeLength="1493.50" waitingTime="3.00" waitingCount="1" stopTime="0.00" timeLoss="17.94" rerouteNo="0" devices="tripinfo_f_0_2.1 emissions_f_0_2.1" vType="DEFAULT_VEHTYPE" speedFactor="1.03" vaporized="">
        <emissions CO_abs="3814.130899" CO2_abs="329042.151837" HC_abs="24.315379" PMx_abs="4.678011" NOx_abs="123.792746" fuel_abs="104949.971414" electricity_abs="0"/>
    </tripinfo>
    <tripinfo id="f_0_5.1" depart="4.00" departLane="D9D8_0" departPos="5.10" departSpeed="0.00" departDelay="0.00" arrival="127.00" arrivalLane="D7D6_0" arrivalPos="492.80" arrivalSpeed="12.68" duration="123.00" routeLength="1494.90" waitingTime="0.00" waitingCount="0" stopTime="0.00" timeLoss="8.30" rerouteNo="0" devices="tripinfo_f_0_5.1 emissions_f_0_5.1" vType="DEFAULT_VEHTYPE" speedFactor="0.94" vaporized="">
        <emissions CO_abs="2541.243110" CO2_abs="294239.874780" HC_abs="17.777311" PMx_abs="3.618969" NOx_abs="107.047937" fuel_abs="93849.713026" electricity_abs="0"/>
    </tripinfo>
    <tripinfo id="f_0_10.2" depart="13.00" departLane="H5H6_0" departPos="5.10" departSpeed="0.00" departDelay="0.00" arrival="130.00" arrivalLane="H7H8_0" arrivalPos="491.30" arrivalSpeed="13.80" duration="117.00" routeLength="1493.50" waitingTime="0.00" waitingCount="0" stopTime="0.00" timeLoss="8.77" rerouteNo="0" devices="tripinfo_f_0_10.2 emissions_f_0_10.2" vType="DEFAULT_VEHTYPE" speedFactor="1.00" vaporized="">
        <emissions CO_abs="2409.299836" CO2_abs="293023.048547" HC_abs="16.974132" PMx_abs="3.661327" NOx_abs="106.318597" fuel_abs="93461.449632" electricity_abs="0"/>
    </tripinfo>
    <tripinfo id="f_0_2.2" depart="6.00" departLane="C5C6_0" departPos="5.10" departSpeed="0.00" departDelay="1.00" arrival="131.00" arrivalLane="C7C8_0" arrivalPos="491.30" arrivalSpeed="12.03" duration="125.00" routeLength="1493.50" waitingTime="0.00" waitingCount="0" stopTime="0.00" timeLoss="9.96" rerouteNo="0" devices="tripinfo_f_0_2.2 emissions_f_0_2.2" vType="DEFAULT_VEHTYPE" speedFactor="0.94" vaporized="">
        <emissions CO_abs="2617.490904" CO2_abs="288814.366362" HC_abs="18.040367" PMx_abs="3.602182" NOx_abs="105.898733" fuel_abs="92119.192143" electricity_abs="0"/>
    </tripinfo>
    <tripinfo id="f_0_5.2" depart="11.00" departLane="D9D8_0" departPos="5.10" departSpeed="0.00" departDelay="0.00" arrival="131.00" arrivalLane="D7D6_0" arrivalPos="492.80" arrivalSpeed="12.88" duration="120.00" routeLength="1494.90" waitingTime="0.00" waitingCount="0" stopTime="0.00" timeLoss="8.49" rerouteNo="0" devices="tripinfo_f_0_5.2 emissions_f_0_5.2" vType="DEFAULT_VEHTYPE" speedFactor="0.97" vaporized="">
        <emissions CO_abs="2323.054576" CO2_abs="286902.549147" HC_abs="16.522928" PMx_abs="3.492590" NOx_abs="103.918189" fuel_abs="91509.357326" electricity_abs="0"/>
    </tripinfo>
    <tripinfo id="f_0_10.3" depart="16.00" departLane="H5H6_0" departPos="5.10" departSpeed="0.00" departDelay="1.00" arrival="132.00" arrivalLane="H7H8_0" arrivalPos="491.30" arrivalSpeed="14.73" duration="116.00" routeLength="1493.50" waitingTime="0.00" waitingCount="0" stopTime="0.00" timeLoss="17.11" rerouteNo="0" devices="tripinfo_f_0_10.3 emissions_f_0_10.3" vType="DEFAULT_VEHTYPE" speedFactor="1.10" vaporized="">
        <emissions CO_abs="2974.451077" CO2_abs="306161.974547" HC_abs="20.187848" PMx_abs="4.481012" NOx_abs="116.148770" fuel_abs="97651.710635" electricity_abs="0"/>
    </tripinfo>
    <tripinfo id="f_0_14.3" depart="16.00" departLane="C2C3_0" departPos="5.10" departSpeed="0.00" departDelay="1.00" arrival="132.00" arrivalLane="C4C5_0" arrivalPos="492.80" arrivalSpeed="13.16" duration="116.00" routeLength="1494.90" waitingTime="0.00" waitingCount="0" stopTime="0.00" timeLoss="7.81" rerouteNo="0" devices="tripinfo_f_0_14.3 emissions_f_0_14.3" vType="DEFAULT_VEHTYPE" speedFactor="1.00" vaporized="">
        <emissions CO_abs="2318.093203" CO2_abs="271766.804945" HC_abs="16.233924" PMx_abs="3.582787" NOx_abs="99.980548" fuel_abs="86681.476293" electricity_abs="0"/>
    </tripinfo>
    <tripinfo id="f_0_8.0" depart="2.00" departLane="G5G6_0" departPos="5.10" departSpeed="0.00" departDelay="0.00" arrival="133.00" arrivalLane="G7G8_0" arrivalPos="491.30" arrivalSpeed="11.34" duration="131.00" routeLength="1493.50" waitingTime="0.00" waitingCount="0" stopTime="0.00" timeLoss="8.75" rerouteNo="0" devices="tripinfo_f_0_8.0 emissions_f_0_8.0" vType="DEFAULT_VEHTYPE" speedFactor="0.89" vaporized="">
        <emissions CO_abs="2791.981595" CO2_abs="300090.962472" HC_abs="19.350595" PMx_abs="3.625544" NOx_abs="109.940690" fuel_abs="95716.121242" electricity_abs="0"/>
    </tripinfo>
    <tripinfo id="f_0_16.2" depart="8.00" departLane="D2D3_0" departPos="5.10" departSpeed="0.00" departDelay="0.00" arrival="133.00" arrivalLane="D4D5_0" arrivalPos="492.80" arrivalSpeed="12.77" duration="125.00" routeLength="1494.90" waitingTime="0.00" waitingCount="0" stopTime="0.00" timeLoss="8.95" rerouteNo="0" devices="tripinfo_f_0_16.2 emissions_f_0_16.2" vType="DEFAULT_VEHTYPE" speedFactor="0.93" vaporized="">
        <emissions CO_abs="2656.163705" CO2_abs="294071.979846" HC_abs="18.500325" PMx_abs="3.711646" NOx_abs="108.387458" fuel_abs="93796.091093" electricity_abs="0"/>
    </tripinfo>
    <tripinfo id="f_0_15.0" depart="16.00" departLane="C6C5_0" departPos="5.10" departSpeed="0.00" departDelay="0.00" arrival="133.00" arrivalLane="C4C3_0" arrivalPos="491.30" arrivalSpeed="13.29" duration="117.00" routeLength="1493.50" waitingTime="0.00" waitingCount="0" stopTime="0.00" timeLoss="8.42" rerouteNo="0" devices="tripinfo_f_0_15.0 emissions_f_0_15.0" vType="DEFAULT_VEHTYPE" speedFactor="1.00" vaporized="">
        <emissions CO_abs="2543.011887" CO2_abs="288763.258054" HC_abs="17.587772" PMx_abs="3.831561" NOx_abs="106.818793" fuel_abs="92102.582135" electricity_abs="0"/>
    </tripinfo>
    <tripinfo id="f_0_10.4" depart="19.00" departLane="H5H6_0" departPos="5.10" departSpeed="0.00" departDelay="2.00" arrival="133.00" arrivalLane="H7H8_0" arrivalPos="491.30" arrivalSpeed="14.89" duration="114.00" routeLength="1493.50" waitingTime="0.00" waitingCount="0" stopTime="0.00" timeLoss="14.58" rerouteNo="0" devices="tripinfo_f_0_10.4 emissions_f_0_10.4" vType="DEFAULT_VEHTYPE" speedFactor="1.08" vaporized="">
        <emissions CO_abs="2985.894805" CO2_abs="312938.918693" HC_abs="20.109775" PMx_abs="4.467089" NOx_abs="117.575920" fuel_abs="99813.311172" electricity_abs="0"/>
    </tripinfo>
    <tripinfo id="f_0_15.1" depart="20.00" departLane="C6C5_0" departPos="5.10" departSpeed="0.00" departDelay="0.00" arrival="134.00" arrivalLane="C4C3_0" arrivalPos="491.30" arrivalSpeed="14.26" duration="114.00" routeLength="1493.50" waitingTime="0.00" waitingCount="0" stopTime="0.00" timeLoss="12.14" rerouteNo="0" devices="tripinfo_f_0_15.1 emissions_f_0_15.1" vType="DEFAULT_VEHTYPE" speedFactor="1.06" vaporized="">
        <emissions CO_abs="3028.247102" CO2_abs="307431.246934" HC_abs="20.332041" PMx_abs="4.482041" NOx_abs="116.292175" fuel_abs="98056.584309" electricity_abs="0"/>
    </tripinfo>
    <tripinfo id="f_0_16.3" depart="11.00" departLane="D2D3_0" departPos="5.10" departSpeed="0.00" departDelay="1.00" arrival="135.00" arrivalLane="D4D5_0" arrivalPos="492.80" arrivalSpeed="13.60" duration="124.00" routeLength="1494.90" waitingTime="0.00" waitingCount="0" stopTime="0.00" timeLoss="14.94" rerouteNo="0" devices="tripinfo_f_0_16.3 emissions_f_0_16.3" vType="DEFAULT_VEHTYPE" speedFactor="0.99" vaporized="">
        <emissions CO_abs="3319.778653" CO2_abs="323844.440058" HC_abs="22.232813" PMx_abs="4.665821" NOx_abs="123.341318" fuel_abs="103291.770533" electricity_abs="0"/>
    </tripinfo>
    <tripinfo id="f_0_5.3" depart="14.00" departLane="D9D8_0" departPos="5.10" departSpeed="0.00" departDelay="2.00" arrival="135.00" arrivalLane="D7D6_0" arrivalPos="492.80" arrivalSpeed="12.99" duration="121.00" routeLength="1494.90" waitingTime="0.00" waitingCount="0" stopTime="0.00" timeLoss="8.13" rerouteNo="0" devices="tripinfo_f_0_5.3 emissions_f_0_5.3" vType="DEFAULT_VEHTYPE" speedFactor="0.96" vaporized="">
        <emissions CO_abs="2607.109904" CO2_abs="296266.130139" HC_abs="17.842280" PMx_abs="3.682735" NOx_abs="107.549997" fuel_abs="94495.961954" electricity_abs="0"/>
    </tripinfo>
    <tripinfo id="f_0_16.4" depart="14.00" departLane="D2D3_0" departPos="5.10" departSpeed="0.00" departDelay="2.00" arrival="136.00" arrivalLane="D4D5_0" arrivalPos="492.80" arrivalSpeed="14.21" duration="122.00" routeLength="1494.90" waitingTime="0.00" waitingCount="0" stopTime="0.00" timeLoss="18.08" rerouteNo="0" devices="tripinfo_f_0_16.4 emissions_f_0_16.4" vType="DEFAULT_VEHTYPE" speedFactor="1.04" vaporized="">
        <emissions CO_abs="3856.651663" CO2_abs="345895.305776" HC_abs="25.399144" PMx_abs="5.438578" NOx_abs="135.208634" fuel_abs="110324.665839" electricity_abs="0"/>
    </tripinfo>
    <tripinfo id="f_0_4.0" depart="3.00" departLane="D5D6_0" departPos="5.10" departSpeed="0.00" departDelay="0.00" arrival="139.00" arrivalLane="D7D8_0" arrivalPos="491.30" arrivalSpeed="10.72" duration="136.00" routeLength="1493.50" waitingTime="0.00" waitingCount="0" stopTime="0.00" timeLoss="10.19" rerouteNo="0" devices="tripinfo_f_0_4.0 emissions_f_0_4.0" vType="DEFAULT_VEHTYPE" speedFactor="0.86" vaporized="">
        <emissions CO_abs="3058.595547" CO2_abs="292951.701270" HC_abs="20.453579" PMx_abs="3.547524" NOx_abs="107.788417" fuel_abs="93439.183632" electricity_abs="0"/>
    </tripinfo>
    <tripinfo id="f_0_17.1" depart="7.00" departLane="D6D5_0" departPos="5.10" departSpeed="0.00" departDelay="0.00" arrival="139.00" arrivalLane="D4D3_0" arrivalPos="491.30" arrivalSpeed="11.68" duration="132.00" routeLength="1493.50" waitingTime="0.00" waitingCount="0" stopTime="0.00" timeLoss="8.66" rerouteNo="0" devices="tripinfo_f_0_17.1 emissions_f_0_17.1" vType="DEFAULT_VEHTYPE" speedFactor="0.87" vaporized="">
        <emissions CO_abs="2807.139874" CO2_abs="298044.162205" HC_abs="19.461415" PMx_abs="3.534553" NOx_abs="109.014388" fuel_abs="95063.360349" electricity_abs="0"/>
    </tripinfo>
    <tripinfo id="f_0_4.1" depart="6.00" departLane="D5D6_0" departPos="5.10" departSpeed="0.00" departDelay="2.00" arrival="141.00" arrivalLane="D7D8_0" arrivalPos="491.30" arrivalSpeed="11.23" duration="135.00" routeLength="1493.50" waitingTime="0.00" waitingCount="0" stopTime="0.00" timeLoss="11.98" rerouteNo="0" devices="tripinfo_f_0_4.1 emissions_f_0_4.1" vType="DEFAULT_VEHTYPE" speedFactor="0.88" vaporized="">
        <emissions CO_abs="3697.460673" CO2_abs="324867.286474" HC_abs="24.201356" PMx_abs="4.510207" NOx_abs="123.696527" fuel_abs="103618.401449" electricity_abs="0"/>
    </tripinfo>
    <tripinfo id="f_0_11.0" depart="7.00" departLane="H9H8_0" departPos="5.10" departSpeed="0.00" departDelay="0.00" arrival="148.00" arrivalLane="H7H6_0" arrivalPos="492.80" arrivalSpeed="10.69" duration="141.00" routeLength="1494.90" waitingTime="0.00" waitingCount="0" stopTime="0.00" timeLoss="10.46" rerouteNo="0" devices="tripinfo_f_0_11.0 emissions_f_0_11.0" vType="DEFAULT_VEHTYPE" speedFactor="0.83" vaporized="">
        <emissions CO_abs="3358.640029" CO2_abs="303191.215117" HC_abs="22.137134" PMx_abs="3.679737" NOx_abs="112.139604" fuel_abs="96705.235361" electricity_abs="0"/>
    </tripinfo>
    <tripinfo id="f_0_11.1" depart="11.00" departLane="H9H8_0" departPos="5.10" departSpeed="0.00" departDelay="0.00" arrival="150.00" arrivalLane="H7H6_0" arrivalPos="492.80" arrivalSpeed="14.36" duration="139.00" routeLength="1494.90" waitingTime="0.00" waitingCount="0" stopTime="0.00" timeLoss="40.84" rerouteNo="0" devices="tripinfo_f_0_11.1 emissions_f_0_11.1" vType="DEFAULT_VEHTYPE" speedFactor="1.10" vaporized="">
        <emissions CO_abs="4354.761609" CO2_abs="351516.013161" HC_abs="27.892366" PMx_abs="5.154643" NOx_abs="136.218026" fuel_abs="112118.046771" electricity_abs="0"/>
    </tripinfo>
    <tripinfo id="f_0_11.2" depart="14.00" departLane="H9H8_0" departPos="5.10" departSpeed="0.00" departDelay="1.00" arrival="152.00" arrivalLane="H7H6_0" arrivalPos="492.80" arrivalSpeed="12.44" duration="138.00" routeLength="1494.90" waitingTime="0.00" waitingCount="0" stopTime="0.00" timeLoss="17.91" rerouteNo="0" devices="tripinfo_f_0_11.2 emissions_f_0_11.2" vType="DEFAULT_VEHTYPE" speedFactor="0.90" vaporized="">
        <emissions CO_abs="3956.123681" CO2_abs="329369.969035" HC_abs="25.524342" PMx_abs="4.733157" NOx_abs="126.900087" fuel_abs="105054.475972" electricity_abs="0"/>
    </tripinfo>
    <tripinfo id="f_0_2.3" depart="17.00" departLane="C5C6_0" departPos="5.10" departSpeed="0.00" departDelay="0.00" arrival="154.00" arrivalLane="C7C8_0" arrivalPos="491.30" arrivalSpeed="12.27" duration="137.00" routeLength="1493.50" waitingTime="3.00" waitingCount="1" stopTime="0.00" timeLoss="17.08" rerouteNo="0" devices="tripinfo_f_0_2.3 emissions_f_0_2.3" vType="DEFAULT_VEHTYPE" speedFactor="0.90" vaporized="">
        <emissions CO_abs="4080.541734" CO2_abs="326872.772126" HC_abs="25.795805" PMx_abs="4.336038" NOx_abs="122.435180" fuel_abs="104258.565618" electricity_abs="0"/>
    </tripinfo>
    <tripinfo id="f_1_15.0" depart="25.00" departLane="C6C5_0" departPos="5.10" departSpeed="0.00" departDelay="0.00" arrival="155.00" arrivalLane="C4C3_0" arrivalPos="491.30" arrivalSpeed="15.54" duration="130.00" routeLength="1493.50" waitingTime="18.00" waitingCount="1" stopTime="0.00" timeLoss="35.79" rerouteNo="0" devices="tripinfo_f_1_15.0 emissions_f_1_15.0" vType="DEFAULT_VEHTYPE" speedFactor="1.15" vaporized="">
        <emissions CO_abs="6899.875569" CO2_abs="403464.086180" HC_abs="40.127292" PMx_abs="6.755373" NOx_abs="158.281905" fuel_abs="128687.516470" electricity_abs="0"/>
    </tripinfo>
    <tripinfo id="f_0_4.2" depart="9.00" departLane="D5D6_0" departPos="5.10" departSpeed="0.00" departDelay="4.00" arrival="158.00" arrivalLane="D7D8_0" arrivalPos="491.30" arrivalSpeed="15.35" duration="149.00" routeLength="1493.50" waitingTime="20.00" waitingCount="1" stopTime="0.00" timeLoss="55.68" rerouteNo="0" devices="tripinfo_f_0_4.2 emissions_f_0_4.2" vType="DEFAULT_VEHTYPE" speedFactor="1.16" vaporized="">
        <emissions CO_abs="8203.744067" CO2_abs="416560.521632" HC_abs="46.676021" PMx_abs="7.188627" NOx_abs="167.450199" fuel_abs="132865.046241" electricity_abs="0"/>
    </tripinfo>
    <tripinfo id="f_0_5.4" depart="17.00" departLane="D9D8_0" departPos="5.10" departSpeed="0.00" departDelay="0.00" arrival="158.00" arrivalLane="D7D6_0" arrivalPos="492.80" arrivalSpeed="15.22" duration="141.00" routeLength="1494.90" waitingTime="21.00" waitingCount="1" stopTime="0.00" timeLoss="46.66" rerouteNo="0" devices="tripinfo_f_0_5.4 emissions_f_0_5.4" vType="DEFAULT_VEHTYPE" speedFactor="1.14" vaporized="">
        <emissions CO_abs="7867.917383" CO2_abs="409753.318001" HC_abs="44.845105" PMx_abs="7.035263" NOx_abs="162.911021" fuel_abs="130693.844149" electricity_abs="0"/>
    </tripinfo>
    <tripinfo id="f_0_8.1" depart="4.00" departLane="G5G6_0" departPos="5.10" departSpeed="0.00" departDelay="1.00" arrival="159.00" arrivalLane="G7G8_0" arrivalPos="491.30" arrivalSpeed="13.94" duration="155.00" routeLength="1493.50" waitingTime="26.00" waitingCount="1" stopTime="0.00" timeLoss="55.86" rerouteNo="0" devices="tripinfo_f_0_8.1 emissions_f_0_8.1" vType="DEFAULT_VEHTYPE" speedFactor="1.09" vaporized="">
        <emissions CO_abs="8534.507443" CO2_abs="417134.345840" HC_abs="48.126979" PMx_abs="6.966458" NOx_abs="165.719650" fuel_abs="133048.580562" electricity_abs="0"/>
    </tripinfo>
    <tripinfo id="f_1_15.1" depart="28.00" departLane="C6C5_0" departPos="5.10" departSpeed="0.00" departDelay="2.00" arrival="160.00" arrivalLane="C4C3_0" arrivalPos="491.30" arrivalSpeed="13.75" duration="132.00" routeLength="1493.50" waitingTime="14.00" waitingCount="1" stopTime="0.00" timeLoss="28.64" rerouteNo="0" devices="tripinfo_f_1_15.1 emissions_f_1_15.1" vType="DEFAULT_VEHTYPE" speedFactor="1.04" vaporized="">
        <emissions CO_abs="5591.723230" CO2_abs="358032.944073" HC_abs="33.030881" PMx_abs="5.481477" NOx_abs="137.676997" fuel_abs="114197.188087" electricity_abs="0"/>
    </tripinfo>
    <tripinfo id="f_0_8.2" depart="17.00" departLane="G5G6_0" departPos="5.10" departSpeed="0.00" departDelay="0.00" arrival="163.00" arrivalLane="G7G8_0" arrivalPos="491.30" arrivalSpeed="13.11" duration="146.00" routeLength="1493.50" waitingTime="26.00" waitingCount="1" stopTime="0.00" timeLoss="40.32" rerouteNo="0" devices="tripinfo_f_0_8.2 emissions_f_0_8.2" vType="DEFAULT_VEHTYPE" speedFactor="1.02" vaporized="">
        <emissions CO_abs="7619.839147" CO2_abs="380059.878524" HC_abs="42.984749" PMx_abs="6.145211" NOx_abs="148.738687" fuel_abs="121223.540196" electricity_abs="0"/>
    </tripinfo>
    <tripinfo id="f_0_9.2" depart="9.00" departLane="G9G8_0" departPos="5.10" departSpeed="0.00" departDelay="1.00" arrival="164.00" arrivalLane="G7G6_0" arrivalPos="492.80" arrivalSpeed="12.72" duration="155.00" routeLength="1494.90" waitingTime="27.00" waitingCount="1" stopTime="0.00" timeLoss="40.88" rerouteNo="0" devices="tripinfo_f_0_9.2 emissions_f_0_9.2" vType="DEFAULT_VEHTYPE" speedFactor="0.95" vaporized="">
        <emissions CO_abs="7892.694368" CO2_abs="387880.063096" HC_abs="44.385021" PMx_abs="6.176037" NOx_abs="151.892806" fuel_abs="123718.032860" electricity_abs="0"/>
    </tripinfo>
    <tripinfo id="f_0_9.3" depart="12.00" departLane="G9G8_0" departPos="5.10" departSpeed="0.00" departDelay="1.00" arrival="165.00" arrivalLane="G7G6_0" arrivalPos="492.80" arrivalSpeed="14.11" duration="153.00" routeLength="1494.90" waitingTime="27.00" waitingCount="1" stopTime="0.00" timeLoss="61.73" rerouteNo="0" devices="tripinfo_f_0_9.3 emissions_f_0_9.3" vType="DEFAULT_VEHTYPE" speedFactor="1.18" vaporized="">
        <emissions CO_abs="8704.645187" CO2_abs="414072.131659" HC_abs="49.080399" PMx_abs="7.273658" NOx_abs="167.529093" fuel_abs="132071.604411" electricity_abs="0"/>
    </tripinfo>
    <tripinfo id="f_0_5.5" depart="26.00" departLane="D9D8_0" departPos="5.10" departSpeed="0.00" departDelay="0.00" arrival="166.00" arrivalLane="D7D6_0" arrivalPos="492.80" arrivalSpeed="13.23" duration="140.00" routeLength="1494.90" waitingTime="14.00" waitingCount="1" stopTime="0.00" timeLoss="28.82" rerouteNo="0" devices="tripinfo_f_0_5.5 emissions_f_0_5.5" vType="DEFAULT_VEHTYPE" speedFactor="0.98" vaporized="">
        <emissions CO_abs="5770.278022" CO2_abs="360122.863067" HC_abs="33.809521" PMx_abs="5.359420" NOx_abs="137.679012" fuel_abs="114864.064491" electricity_abs="0"/>
    </tripinfo>
    <tripinfo id="f_0_9.4" depart="15.00" departLane="G9G8_0" departPos="5.10" departSpeed="0.00" departDelay="2.00" arrival="167.00" arrivalLane="G7G6_0" arrivalPos="492.80" arrivalSpeed="14.89" duration="152.00" routeLength="1494.90" waitingTime="26.00" waitingCount="1" stopTime="0.00" timeLoss="52.74" rerouteNo="0" devices="tripinfo_f_0_9.4 emissions_f_0_9.4" vType="DEFAULT_VEHTYPE" speedFactor="1.09" vaporized="">
        <emissions CO_abs="8983.301217" CO2_abs="430607.194512" HC_abs="50.589808" PMx_abs="7.733621" NOx_abs="175.046826" fuel_abs="137345.333429" electricity_abs="0"/>
    </tripinfo>
    <tripinfo id="f_0_8.3" depart="25.00" departLane="G5G6_0" departPos="5.10" departSpeed="0.00" departDelay="0.00" arrival="167.00" arrivalLane="G7G8_0" arrivalPos="491.30" arrivalSpeed="13.31" duration="142.00" routeLength="1493.50" waitingTime="14.00" waitingCount="1" stopTime="0.00" timeLoss="30.23" rerouteNo="0" devices="tripinfo_f_0_8.3 emissions_f_0_8.3" vType="DEFAULT_VEHTYPE" speedFactor="0.97" vaporized="">
        <emissions CO_abs="6090.138026" CO2_abs="359653.783120" HC_abs="35.545274" PMx_abs="5.555034" NOx_abs="139.630612" fuel_abs="114714.398733" electricity_abs="0"/>
    </tripinfo>
    <tripinfo id="f_0_4.3" depart="12.00" departLane="D5D6_0" departPos="5.10" departSpeed="0.00" departDelay="4.00" arrival="168.00" arrivalLane="D7D8_0" arrivalPos="491.30" arrivalSpeed="12.07" duration="156.00" routeLength="1493.50" waitingTime="20.00" waitingCount="1" stopTime="0.00" timeLoss="38.71" rerouteNo="0" devices="tripinfo_f_0_4.3 emissions_f_0_4.3" vType="DEFAULT_VEHTYPE" speedFactor="0.92" vaporized="">
        <emissions CO_abs="7757.894733" CO2_abs="386951.588235" HC_abs="44.050563" PMx_abs="6.469820" NOx_abs="154.745930" fuel_abs="123421.409350" electricity_abs="0"/>
    </tripinfo>
    <tripinfo id="f_0_14.4" depart="20.00" departLane="C2C3_0" departPos="5.10" departSpeed="0.00" departDelay="0.00" arrival="168.00" arrivalLane="C4C5_0" arrivalPos="492.80" arrivalSpeed="12.72" duration="148.00" routeLength="1494.90" waitingTime="19.00" waitingCount="1" stopTime="0.00" timeLoss="33.42" rerouteNo="0" devices="tripinfo_f_0_14.4 emissions_f_0_14.4" vType="DEFAULT_VEHTYPE" speedFactor="0.94" vaporized="">