<?xml version="1.0" encoding="UTF-8"?>

<!-- generated on 2024-08-22 13:36:18 by Eclipse SUMO sumo Version 1.17.0
<configuration xmlns:xsi="http://www.w3.org/2001/XMLSchema-instance" xsi:noNamespaceSchemaLocation="http://sumo.dlr.de/xsd/sumoConfiguration.xsd">

    <input>
        <net-file value="double_actuated.net.xml"/>
        <route-files value="double_3.rou.xml"/>
    </input>

    <output>
        <tripinfo-output value="emissions_test\z_actuated_3_emissions_tripinfo_double.xml"/>
    </output>

    <processing>
        <time-to-teleport value="-1"/>
    </processing>

    <emissions>
        <device.emissions.probability value="1.0"/>
    </emissions>

    <traci_server>
        <remote-port value="58223"/>
    </traci_server>

</configuration>
-->

<tripinfos xmlns:xsi="http://www.w3.org/2001/XMLSchema-instance" xsi:noNamespaceSchemaLocation="http://sumo.dlr.de/xsd/tripinfo_file.xsd">
    <tripinfo id="f_1_21.0" depart="3.00" departLane="G6G5_0" departPos="5.10" departSpeed="0.00" departDelay="0.00" arrival="116.00" arrivalLane="G4G3_0" arrivalPos="491.30" arrivalSpeed="15.81" duration="113.00" routeLength="1493.50" waitingTime="5.00" waitingCount="1" stopTime="0.00" timeLoss="19.23" rerouteNo="0" devices="tripinfo_f_1_21.0 emissions_f_1_21.0" vType="DEFAULT_VEHTYPE" speedFactor="1.16" vaporized="">
        <emissions CO_abs="4468.995724" CO2_abs="348396.961890" HC_abs="27.459942" PMx_abs="5.411588" NOx_abs="132.497278" fuel_abs="111123.020369" electricity_abs="0"/>
    </tripinfo>
    <tripinfo id="f_1_15.0" depart="10.00" departLane="C6C5_0" departPos="5.10" departSpeed="0.00" departDelay="0.00" arrival="116.00" arrivalLane="C4C3_0" arrivalPos="491.30" arrivalSpeed="14.21" duration="106.00" routeLength="1493.50" waitingTime="0.00" waitingCount="0" stopTime="0.00" timeLoss="7.53" rerouteNo="0" devices="tripinfo_f_1_15.0 emissions_f_1_15.0" vType="DEFAULT_VEHTYPE" speedFactor="1.09" vaporized="">
        <emissions CO_abs="2348.519891" CO2_abs="283475.733221" HC_abs="16.219243" PMx_abs="3.842110" NOx_abs="103.122070" fuel_abs="90415.941002" electricity_abs="0"/>
    </tripinfo>
    <tripinfo id="f_1_20.0" depart="0.00" departLane="G2G3_0" departPos="5.10" departSpeed="0.00" departDelay="0.00" arrival="118.00" arrivalLane="G4G5_0" arrivalPos="492.80" arrivalSpeed="14.25" duration="118.00" routeLength="1494.90" waitingTime="6.00" waitingCount="1" stopTime="0.00" timeLoss="18.04" rerouteNo="0" devices="tripinfo_f_1_20.0 emissions_f_1_20.0" vType="DEFAULT_VEHTYPE" speedFactor="1.08" vaporized="">
        <emissions CO_abs="4127.927023" CO2_abs="328415.426428" HC_abs="25.369161" PMx_abs="4.852565" NOx_abs="123.918008" fuel_abs="104750.008528" electricity_abs="0"/>
    </tripinfo>
    <tripinfo id="f_1_14.0" depart="0.00" departLane="C2C3_0" departPos="5.10" departSpeed="0.00" departDelay="0.00" arrival="120.00" arrivalLane="C4C5_0" arrivalPos="492.80" arrivalSpeed="12.81" duration="120.00" routeLength="1494.90" waitingTime="0.00" waitingCount="0" stopTime="0.00" timeLoss="12.98" rerouteNo="0" devices="tripinfo_f_1_14.0 emissions_f_1_14.0" vType="DEFAULT_VEHTYPE" speedFactor="1.01" vaporized="">
        <emissions CO_abs="3057.992210" CO2_abs="319214.918411" HC_abs="20.648496" PMx_abs="4.378981" NOx_abs="119.228868" fuel_abs="101815.283961" electricity_abs="0"/>
    </tripinfo>
    <tripinfo id="f_0_11.0" depart="3.00" departLane="H9H8_0" departPos="5.10" departSpeed="0.00" departDelay="0.00" arrival="121.00" arrivalLane="H7H6_0" arrivalPos="492.80" arrivalSpeed="12.73" duration="118.00" routeLength="1494.90" waitingTime="0.00" waitingCount="0" stopTime="0.00" timeLoss="8.97" rerouteNo="0" devices="tripinfo_f_0_11.0 emissions_f_0_11.0" vType="DEFAULT_VEHTYPE" speedFactor="0.99" vaporized="">
        <emissions CO_abs="2438.070429" CO2_abs="287370.657730" HC_abs="17.090052" PMx_abs="3.679450" NOx_abs="105.256886" fuel_abs="91658.516627" electricity_abs="0"/>
    </tripinfo>
    <tripinfo id="f_1_23.0" depart="10.00" departLane="H6H5_0" departPos="5.10" departSpeed="0.00" departDelay="0.00" arrival="121.00" arrivalLane="H4H3_0" arrivalPos="491.30" arrivalSpeed="13.68" duration="111.00" routeLength="1493.50" waitingTime="0.00" waitingCount="0" stopTime="0.00" timeLoss="7.94" rerouteNo="0" devices="tripinfo_f_1_23.0 emissions_f_1_23.0" vType="DEFAULT_VEHTYPE" speedFactor="1.04" vaporized="">
        <emissions CO_abs="2301.456319" CO2_abs="285946.201009" HC_abs="16.444036" PMx_abs="3.799207" NOx_abs="105.045064" fuel_abs="91203.966987" electricity_abs="0"/>
    </tripinfo>
    <tripinfo id="f_1_14.1" depart="3.00" departLane="C2C3_0" departPos="5.10" departSpeed="0.00" departDelay="2.00" arrival="122.00" arrivalLane="C4C5_0" arrivalPos="492.80" arrivalSpeed="14.09" duration="119.00" routeLength="1494.90" waitingTime="0.00" waitingCount="0" stopTime="0.00" timeLoss="15.31" rerouteNo="0" devices="tripinfo_f_1_14.1 emissions_f_1_14.1" vType="DEFAULT_VEHTYPE" speedFactor="1.05" vaporized="">
        <emissions CO_abs="3402.599492" CO2_abs="322299.343896" HC_abs="22.398283" PMx_abs="4.759753" NOx_abs="122.769811" fuel_abs="102798.872850" electricity_abs="0"/>
    </tripinfo>
    <tripinfo id="f_0_8.0" depart="9.00" departLane="G5G6_0" departPos="5.10" departSpeed="0.00" departDelay="0.00" arrival="123.00" arrivalLane="G7G8_0" arrivalPos="491.30" arrivalSpeed="13.11" duration="114.00" routeLength="1493.50" waitingTime="0.00" waitingCount="0" stopTime="0.00" timeLoss="7.89" rerouteNo="0" devices="tripinfo_f_0_8.0 emissions_f_0_8.0" vType="DEFAULT_VEHTYPE" speedFactor="1.02" vaporized="">
        <emissions CO_abs="2217.716897" CO2_abs="286722.372554" HC_abs="15.960428" PMx_abs="3.618542" NOx_abs="103.961934" fuel_abs="91451.683939" electricity_abs="0"/>
    </tripinfo>
    <tripinfo id="f_0_9.0" depart="0.00" departLane="G9G8_0" departPos="5.10" departSpeed="0.00" departDelay="0.00" arrival="124.00" arrivalLane="G7G6_0" arrivalPos="492.80" arrivalSpeed="11.97" duration="124.00" routeLength="1494.90" waitingTime="0.00" waitingCount="0" stopTime="0.00" timeLoss="8.53" rerouteNo="0" devices="tripinfo_f_0_9.0 emissions_f_0_9.0" vType="DEFAULT_VEHTYPE" speedFactor="0.94" vaporized="">
        <emissions CO_abs="2648.293032" CO2_abs="301514.362502" HC_abs="18.445199" PMx_abs="3.776896" NOx_abs="110.126418" fuel_abs="96169.911130" electricity_abs="0"/>
    </tripinfo>
    <tripinfo id="f_0_11.1" depart="10.00" departLane="H9H8_0" departPos="5.10" departSpeed="0.00" departDelay="0.00" arrival="124.00" arrivalLane="H7H6_0" arrivalPos="492.80" arrivalSpeed="13.64" duration="114.00" routeLength="1494.90" waitingTime="0.00" waitingCount="0" stopTime="0.00" timeLoss="8.75" rerouteNo="0" devices="tripinfo_f_0_11.1 emissions_f_0_11.1" vType="DEFAULT_VEHTYPE" speedFactor="1.03" vaporized="">
        <emissions CO_abs="2357.103193" CO2_abs="284637.854713" HC_abs="16.405503" PMx_abs="3.645838" NOx_abs="103.027979" fuel_abs="90786.857516" electricity_abs="0"/>
    </tripinfo>
    <tripinfo id="f_0_9.1" depart="12.00" departLane="G9G8_0" departPos="5.10" departSpeed="0.00" departDelay="0.00" arrival="125.00" arrivalLane="G7G6_0" arrivalPos="492.80" arrivalSpeed="15.22" duration="113.00" routeLength="1494.90" waitingTime="0.00" waitingCount="0" stopTime="0.00" timeLoss="20.73" rerouteNo="0" devices="tripinfo_f_0_9.1 emissions_f_0_9.1" vType="DEFAULT_VEHTYPE" speedFactor="1.17" vaporized="">
        <emissions CO_abs="3194.467093" CO2_abs="315828.382647" HC_abs="21.320385" PMx_abs="4.748491" NOx_abs="120.412681" fuel_abs="100734.749553" electricity_abs="0"/>
    </tripinfo>
    <tripinfo id="f_0_3.0" depart="22.00" departLane="C9C8_0" departPos="5.10" departSpeed="0.00" departDelay="0.00" arrival="136.00" arrivalLane="C7C6_0" arrivalPos="492.80" arrivalSpeed="12.84" duration="114.00" routeLength="1494.90" waitingTime="0.00" waitingCount="0" stopTime="0.00" timeLoss="8.01" rerouteNo="0" devices="tripinfo_f_0_3.0 emissions_f_0_3.0" vType="DEFAULT_VEHTYPE" speedFactor="1.02" vaporized="">
        <emissions CO_abs="2653.259260" CO2_abs="292016.204510" HC_abs="18.111504" PMx_abs="4.012073" NOx_abs="108.541767" fuel_abs="93140.020636" electricity_abs="0"/>
    </tripinfo>
    <tripinfo id="f_1_14.2" depart="11.00" departLane="C2C3_0" departPos="5.10" departSpeed="0.00" departDelay="0.00" arrival="137.00" arrivalLane="C4C5_0" arrivalPos="492.80" arrivalSpeed="12.89" duration="126.00" routeLength="1494.90" waitingTime="3.00" waitingCount="1" stopTime="0.00" timeLoss="17.38" rerouteNo="0" devices="tripinfo_f_1_14.2 emissions_f_1_14.2" vType="DEFAULT_VEHTYPE" speedFactor="1.00" vaporized="">
        <emissions CO_abs="3938.351304" CO2_abs="328819.840420" HC_abs="24.980569" PMx_abs="4.644784" NOx_abs="123.677344" fuel_abs="104879.182479" electricity_abs="0"/>
    </tripinfo>
    <tripinfo id="f_1_15.1" depart="13.00" departLane="C6C5_0" departPos="5.10" departSpeed="0.00" departDelay="0.00" arrival="137.00" arrivalLane="C4C3_0" arrivalPos="491.30" arrivalSpeed="13.05" duration="124.00" routeLength="1493.50" waitingTime="1.00" waitingCount="1" stopTime="0.00" timeLoss="15.93" rerouteNo="0" devices="tripinfo_f_1_15.1 emissions_f_1_15.1" vType="DEFAULT_VEHTYPE" speedFactor="1.00" vaporized="">
        <emissions CO_abs="3464.640816" CO2_abs="327267.029549" HC_abs="22.489614" PMx_abs="4.355505" NOx_abs="120.607962" fuel_abs="104383.930711" electricity_abs="0"/>
    </tripinfo>
    <tripinfo id="f_1_14.3" depart="14.00" departLane="C2C3_0" departPos="5.10" departSpeed="0.00" departDelay="2.00" arrival="139.00" arrivalLane="C4C5_0" arrivalPos="492.80" arrivalSpeed="13.41" duration="125.00" routeLength="1494.90" waitingTime="3.00" waitingCount="1" stopTime="0.00" timeLoss="18.23" rerouteNo="0" devices="tripinfo_f_1_14.3 emissions_f_1_14.3" vType="DEFAULT_VEHTYPE" speedFactor="1.02" vaporized="">
        <emissions CO_abs="3770.810273" CO2_abs="325639.798236" HC_abs="23.830146" PMx_abs="4.565670" NOx_abs="121.979865" fuel_abs="103864.831317" electricity_abs="0"/>
    </tripinfo>
    <tripinfo id="f_0_11.2" depart="18.00" departLane="H9H8_0" departPos="5.10" departSpeed="0.00" departDelay="0.00" arrival="139.00" arrivalLane="H7H6_0" arrivalPos="492.80" arrivalSpeed="14.46" duration="121.00" routeLength="1494.90" waitingTime="5.00" waitingCount="1" stopTime="0.00" timeLoss="18.19" rerouteNo="0" devices="tripinfo_f_0_11.2 emissions_f_0_11.2" vType="DEFAULT_VEHTYPE" speedFactor="1.06" vaporized="">
        <emissions CO_abs="4328.534485" CO2_abs="345973.738052" HC_abs="26.950843" PMx_abs="5.210556" NOx_abs="131.891904" fuel_abs="110350.256048" electricity_abs="0"/>
    </tripinfo>
    <tripinfo id="f_0_7.0" depart="3.00" departLane="J7I7_0" departPos="5.10" departSpeed="0.00" departDelay="0.00" arrival="140.00" arrivalLane="G7F7_0" arrivalPos="492.80" arrivalSpeed="15.37" duration="137.00" routeLength="1994.90" waitingTime="0.00" waitingCount="0" stopTime="0.00" timeLoss="8.71" rerouteNo="0" devices="tripinfo_f_0_7.0 emissions_f_0_7.0" vType="DEFAULT_VEHTYPE" speedFactor="1.12" vaporized="">
        <emissions CO_abs="2966.437830" CO2_abs="378838.591672" HC_abs="21.224717" PMx_abs="5.342832" NOx_abs="139.977832" fuel_abs="120832.065176" electricity_abs="0"/>
    </tripinfo>
    <tripinfo id="f_1_15.2" depart="16.00" departLane="C6C5_0" departPos="5.10" departSpeed="0.00" departDelay="1.00" arrival="140.00" arrivalLane="C4C3_0" arrivalPos="491.30" arrivalSpeed="13.00" duration="124.00" routeLength="1493.50" waitingTime="0.00" waitingCount="0" stopTime="0.00" timeLoss="12.69" rerouteNo="0" devices="tripinfo_f_1_15.2 emissions_f_1_15.2" vType="DEFAULT_VEHTYPE" speedFactor="0.97" vaporized="">
        <emissions CO_abs="3246.731179" CO2_abs="317165.314766" HC_abs="21.741508" PMx_abs="4.474044" NOx_abs="119.943240" fuel_abs="101161.549095" electricity_abs="0"/>
    </tripinfo>
    <tripinfo id="f_1_22.0" depart="15.00" departLane="H2H3_0" departPos="5.10" departSpeed="0.00" departDelay="0.00" arrival="141.00" arrivalLane="H4H5_0" arrivalPos="492.80" arrivalSpeed="12.27" duration="126.00" routeLength="1494.90" waitingTime="0.00" waitingCount="0" stopTime="0.00" timeLoss="11.01" rerouteNo="0" devices="tripinfo_f_1_22.0 emissions_f_1_22.0" vType="DEFAULT_VEHTYPE" speedFactor="0.94" vaporized="">
        <emissions CO_abs="3212.724724" CO2_abs="309919.959046" HC_abs="21.438329" PMx_abs="4.335113" NOx_abs="117.379229" fuel_abs="98850.650993" electricity_abs="0"/>
    </tripinfo>
    <tripinfo id="f_1_14.4" depart="18.00" departLane="C2C3_0" departPos="5.10" departSpeed="0.00" departDelay="0.00" arrival="141.00" arrivalLane="C4C5_0" arrivalPos="492.80" arrivalSpeed="13.10" duration="123.00" routeLength="1494.90" waitingTime="0.00" waitingCount="0" stopTime="0.00" timeLoss="13.15" rerouteNo="0" devices="tripinfo_f_1_14.4 emissions_f_1_14.4" vType="DEFAULT_VEHTYPE" speedFactor="0.98" vaporized="">
        <emissions CO_abs="3205.477900" CO2_abs="317863.046166" HC_abs="21.082092" PMx_abs="4.270307" NOx_abs="118.038844" fuel_abs="101384.289081" electricity_abs="0"/>
    </tripinfo>
    <tripinfo id="f_0_7.1" depart="7.00" departLane="J7I7_0" departPos="5.10" departSpeed="0.00" departDelay="0.00" arrival="143.00" arrivalLane="G7F7_0" arrivalPos="492.80" arrivalSpeed="14.60" duration="136.00" routeLength="1994.90" waitingTime="0.00" waitingCount="0" stopTime="0.00" timeLoss="8.87" rerouteNo="0" devices="tripinfo_f_0_7.1 emissions_f_0_7.1" vType="DEFAULT_VEHTYPE" speedFactor="1.13" vaporized="">
        <emissions CO_abs="2519.407395" CO2_abs="370958.230359" HC_abs="18.250364" PMx_abs="4.680416" NOx_abs="131.480362" fuel_abs="118318.938315" electricity_abs="0"/>
    </tripinfo>
    <tripinfo id="f_1_14.5" depart="21.00" departLane="C2C3_0" departPos="5.10" departSpeed="0.00" departDelay="2.00" arrival="143.00" arrivalLane="C4C5_0" arrivalPos="492.80" arrivalSpeed="13.62" duration="122.00" routeLength="1494.90" waitingTime="0.00" waitingCount="0" stopTime="0.00" timeLoss="17.12" rerouteNo="0" devices="tripinfo_f_1_14.5 emissions_f_1_14.5" vType="DEFAULT_VEHTYPE" speedFactor="1.03" vaporized="">
        <emissions CO_abs="3934.083059" CO2_abs="344147.769091" HC_abs="25.513868" PMx_abs="5.304794" NOx_abs="133.465441" fuel_abs="109767.449276" electricity_abs="0"/>
    </tripinfo>
    <tripinfo id="f_1_22.1" depart="23.00" departLane="H2H3_0" departPos="5.10" departSpeed="0.00" departDelay="0.00" arrival="143.00" arrivalLane="H4H5_0" arrivalPos="492.80" arrivalSpeed="14.34" duration="120.00" routeLength="1494.90" waitingTime="0.00" waitingCount="0" stopTime="0.00" timeLoss="20.82" rerouteNo="0" devices="tripinfo_f_1_22.1 emissions_f_1_22.1" vType="DEFAULT_VEHTYPE" speedFactor="1.09" vaporized="">
        <emissions CO_abs="3897.201854" CO2_abs="343051.865332" HC_abs="25.179152" PMx_abs="5.366719" NOx_abs="133.040442" fuel_abs="109417.798596" electricity_abs="0"/>
    </tripinfo>
    <tripinfo id="f_1_16.0" depart="3.00" departLane="D2D3_0" departPos="5.10" departSpeed="0.00" departDelay="0.00" arrival="144.00" arrivalLane="D4D5_0" arrivalPos="492.80" arrivalSpeed="12.09" duration="141.00" routeLength="1494.90" waitingTime="10.00" waitingCount="1" stopTime="0.00" timeLoss="24.27" rerouteNo="0" devices="tripinfo_f_1_16.0 emissions_f_1_16.0" vType="DEFAULT_VEHTYPE" speedFactor="0.93" vaporized="">
        <emissions CO_abs="5421.041151" CO2_abs="349915.146654" HC_abs="32.377911" PMx_abs="5.195754" NOx_abs="134.754259" fuel_abs="111608.113008" electricity_abs="0"/>
    </tripinfo>
    <tripinfo id="f_0_6.0" depart="0.00" departLane="E7F7_0" departPos="5.10" departSpeed="0.00" departDelay="0.00" arrival="145.00" arrivalLane="H7I7_0" arrivalPos="491.30" arrivalSpeed="13.87" duration="145.00" routeLength="1993.50" waitingTime="0.00" waitingCount="0" stopTime="0.00" timeLoss="9.50" rerouteNo="0" devices="tripinfo_f_0_6.0 emissions_f_0_6.0" vType="DEFAULT_VEHTYPE" speedFactor="1.06" vaporized="">
        <emissions CO_abs="2644.277457" CO2_abs="369537.339414" HC_abs="19.564485" PMx_abs="4.711418" NOx_abs="133.564710" fuel_abs="117865.823247" electricity_abs="0"/>
    </tripinfo>
    <tripinfo id="f_1_17.0" depart="1.00" departLane="D6D5_0" departPos="5.10" departSpeed="0.00" departDelay="0.00" arrival="145.00" arrivalLane="D4D3_0" arrivalPos="491.30" arrivalSpeed="11.13" duration="144.00" routeLength="1493.50" waitingTime="9.00" waitingCount="1" stopTime="0.00" timeLoss="22.29" rerouteNo="0" devices="tripinfo_f_1_17.0 emissions_f_1_17.0" vType="DEFAULT_VEHTYPE" speedFactor="0.89" vaporized="">
        <emissions CO_abs="5173.549089" CO2_abs="346225.256361" HC_abs="31.267909" PMx_abs="4.923914" NOx_abs="132.308555" fuel_abs="110431.311271" electricity_abs="0"/>
    </tripinfo>
    <tripinfo id="f_1_16.1" depart="6.00" departLane="D2D3_0" departPos="5.10" departSpeed="0.00" departDelay="2.00" arrival="145.00" arrivalLane="D4D5_0" arrivalPos="492.80" arrivalSpeed="13.55" duration="139.00" routeLength="1494.90" waitingTime="10.00" waitingCount="1" stopTime="0.00" timeLoss="32.44" rerouteNo="0" devices="tripinfo_f_1_16.1 emissions_f_1_16.1" vType="DEFAULT_VEHTYPE" speedFactor="1.01" vaporized="">
        <emissions CO_abs="5870.536910" CO2_abs="376023.761927" HC_abs="35.182865" PMx_abs="5.907971" NOx_abs="147.342039" fuel_abs="119935.287622" electricity_abs="0"/>
    </tripinfo>
    <tripinfo id="f_1_20.1" depart="3.00" departLane="G2G3_0" departPos="5.10" departSpeed="0.00" departDelay="0.00" arrival="146.00" arrivalLane="G4G5_0" arrivalPos="492.80" arrivalSpeed="12.40" duration="143.00" routeLength="1494.90" waitingTime="13.00" waitingCount="1" stopTime="0.00" timeLoss="27.73" rerouteNo="0" devices="tripinfo_f_1_20.1 emissions_f_1_20.1" vType="DEFAULT_VEHTYPE" speedFactor="0.94" vaporized="">
        <emissions CO_abs="5869.585472" CO2_abs="368554.211481" HC_abs="34.893654" PMx_abs="5.483631" NOx_abs="142.054928" fuel_abs="117553.274743" electricity_abs="0"/>
    </tripinfo>
    <tripinfo id="f_1_17.1" depart="7.00" departLane="D6D5_0" departPos="5.10" departSpeed="0.00" departDelay="0.00" arrival="147.00" arrivalLane="D4D3_0" arrivalPos="491.30" arrivalSpeed="12.21" duration="140.00" routeLength="1493.50" waitingTime="7.00" waitingCount="1" stopTime="0.00" timeLoss="23.94" rerouteNo="0" devices="tripinfo_f_1_17.1 emissions_f_1_17.1" vType="DEFAULT_VEHTYPE" speedFactor="0.93" vaporized="">
        <emissions CO_abs="5182.047136" CO2_abs="349976.200918" HC_abs="31.345248" PMx_abs="5.263144" NOx_abs="135.421744" fuel_abs="111627.346201" electricity_abs="0"/>
    </tripinfo>
    <tripinfo id="f_1_16.2" depart="9.00" departLane="D2D3_0" departPos="5.10" departSpeed="0.00" departDelay="1.00" arrival="147.00" arrivalLane="D4D5_0" arrivalPos="492.80" arrivalSpeed="13.92" duration="138.00" routeLength="1494.90" waitingTime="9.00" waitingCount="1" stopTime="0.00" timeLoss="30.62" rerouteNo="0" devices="tripinfo_f_1_16.2 emissions_f_1_16.2" vType="DEFAULT_VEHTYPE" speedFactor="1.01" vaporized="">
        <emissions CO_abs="5937.646974" CO2_abs="373225.577548" HC_abs="35.432121" PMx_abs="6.095445" NOx_abs="147.737413" fuel_abs="119042.592791" electricity_abs="0"/>
    </tripinfo>
    <tripinfo id="f_1_20.2" depart="7.00" departLane="G2G3_0" departPos="5.10" departSpeed="0.00" departDelay="0.00" arrival="148.00" arrivalLane="G4G5_0" arrivalPos="492.80" arrivalSpeed="16.22" duration="141.00" routeLength="1494.90" waitingTime="12.00" waitingCount="1" stopTime="0.00" timeLoss="48.84" rerouteNo="0" devices="tripinfo_f_1_20.2 emissions_f_1_20.2" vType="DEFAULT_VEHTYPE" speedFactor="1.18" vaporized="">
        <emissions CO_abs="6696.284608" CO2_abs="410431.741862" HC_abs="39.883221" PMx_abs="6.826712" NOx_abs="163.292582" fuel_abs="130909.709212" electricity_abs="0"/>
    </tripinfo>
    <tripinfo id="f_0_0.0" depart="1.00" departLane="A7B7_0" departPos="5.10" departSpeed="0.00" departDelay="0.00" arrival="149.00" arrivalLane="D7E7_0" arrivalPos="492.80" arrivalSpeed="14.27" duration="148.00" routeLength="1994.90" waitingTime="0.00" waitingCount="0" stopTime="0.00" timeLoss="8.56" rerouteNo="0" devices="tripinfo_f_0_0.0 emissions_f_0_0.0" vType="DEFAULT_VEHTYPE" speedFactor="1.03" vaporized="">
        <emissions CO_abs="2638.095250" CO2_abs="371878.817512" HC_abs="19.415377" PMx_abs="4.556112" NOx_abs="132.929402" fuel_abs="118612.825683" electricity_abs="0"/>
    </tripinfo>
    <tripinfo id="f_1_21.1" depart="6.00" departLane="G6G5_0" departPos="5.10" departSpeed="0.00" departDelay="1.00" arrival="149.00" arrivalLane="G4G3_0" arrivalPos="491.30" arrivalSpeed="10.99" duration="143.00" routeLength="1493.50" waitingTime="6.00" waitingCount="1" stopTime="0.00" timeLoss="19.07" rerouteNo="0" devices="tripinfo_f_1_21.1 emissions_f_1_21.1" vType="DEFAULT_VEHTYPE" speedFactor="0.87" vaporized="">
        <emissions CO_abs="4517.576927" CO2_abs="333298.236590" HC_abs="28.004111" PMx_abs="4.512041" NOx_abs="125.835445" fuel_abs="106308.117612" electricity_abs="0"/>
    </tripinfo>
    <tripinfo id="f_1_17.2" depart="10.00" departLane="D6D5_0" departPos="5.10" departSpeed="0.00" departDelay="1.00" arrival="149.00" arrivalLane="D4D3_0" arrivalPos="491.30" arrivalSpeed="12.53" duration="139.00" routeLength="1493.50" waitingTime="7.00" waitingCount="1" stopTime="0.00" timeLoss="27.70" rerouteNo="0" devices="tripinfo_f_1_17.2 emissions_f_1_17.2" vType="DEFAULT_VEHTYPE" speedFactor="0.97" vaporized="">
        <emissions CO_abs="5809.991934" CO2_abs="370933.931846" HC_abs="34.975437" PMx_abs="6.207468" NOx_abs="148.322413" fuel_abs="118311.408748" electricity_abs="0"/>
    </tripinfo>
    <tripinfo id="f_1_20.3" depart="10.00" departLane="G2G3_0" departPos="5.10" departSpeed="0.00" departDelay="1.00" arrival="149.00" arrivalLane="G4G5_0" arrivalPos="492.80" arrivalSpeed="15.49" duration="139.00" routeLength="1494.90" waitingTime="12.00" waitingCount="1" stopTime="0.00" timeLoss="47.61" rerouteNo="0" devices="tripinfo_f_1_20.3 emissions_f_1_20.3" vType="DEFAULT_VEHTYPE" speedFactor="1.18" vaporized="">
        <emissions CO_abs="6948.579959" CO2_abs="416447.017016" HC_abs="41.075146" PMx_abs="7.258194" NOx_abs="168.168315" fuel_abs="132827.993518" electricity_abs="0"/>
    </tripinfo>
    <tripinfo id="f_1_16.3" depart="24.00" departLane="D2D3_0" departPos="5.10" departSpeed="0.00" departDelay="0.00" arrival="149.00" arrivalLane="D4D5_0" arrivalPos="492.80" arrivalSpeed="14.05" duration="125.00" routeLength="1494.90" waitingTime="6.00" waitingCount="1" stopTime="0.00" timeLoss="26.37" rerouteNo="0" devices="tripinfo_f_1_16.3 emissions_f_1_16.3" vType="DEFAULT_VEHTYPE" speedFactor="1.10" vaporized="">
        <emissions CO_abs="5260.064692" CO2_abs="364580.809223" HC_abs="31.784050" PMx_abs="5.888920" NOx_abs="142.102039" fuel_abs="116285.017616" electricity_abs="0"/>
    </tripinfo>
    <tripinfo id="f_1_21.2" depart="9.00" departLane="G6G5_0" departPos="5.10" departSpeed="0.00" departDelay="3.00" arrival="150.00" arrivalLane="G4G3_0" arrivalPos="491.30" arrivalSpeed="12.43" duration="141.00" routeLength="1493.50" waitingTime="5.00" waitingCount="1" stopTime="0.00" timeLoss="27.60" rerouteNo="0" devices="tripinfo_f_1_21.2 emissions_f_1_21.2" vType="DEFAULT_VEHTYPE" speedFactor="0.95" vaporized="">
        <emissions CO_abs="5376.687432" CO2_abs="362959.622678" HC_abs="32.692266" PMx_abs="5.684603" NOx_abs="142.551934" fuel_abs="115768.222180" electricity_abs="0"/>
    </tripinfo>
    <tripinfo id="f_1_17.3" depart="18.00" departLane="D6D5_0" departPos="5.10" departSpeed="0.00" departDelay="0.00" arrival="150.00" arrivalLane="D4D3_0" arrivalPos="491.30" arrivalSpeed="14.00" duration="132.00" routeLength="1493.50" waitingTime="5.00" waitingCount="1" stopTime="0.00" timeLoss="27.65" rerouteNo="0" devices="tripinfo_f_1_17.3 emissions_f_1_17.3" vType="DEFAULT_VEHTYPE" speedFactor="1.03" vaporized="">
        <emissions CO_abs="5201.435432" CO2_abs="363779.329774" HC_abs="31.430674" PMx_abs="5.693444" NOx_abs="141.285256" fuel_abs="116029.556494" electricity_abs="0"/>
    </tripinfo>
    <tripinfo id="f_1_20.4" depart="13.00" departLane="G2G3_0" departPos="5.10" departSpeed="0.00" departDelay="3.00" arrival="151.00" arrivalLane="G4G5_0" arrivalPos="492.80" arrivalSpeed="13.73" duration="138.00" routeLength="1494.90" waitingTime="12.00" waitingCount="1" stopTime="0.00" timeLoss="34.02" rerouteNo="0" devices="tripinfo_f_1_20.4 emissions_f_1_20.4" vType="DEFAULT_VEHTYPE" speedFactor="1.04" vaporized="">
        <emissions CO_abs="6505.939520" CO2_abs="387592.233501" HC_abs="38.492302" PMx_abs="6.632407" NOx_abs="155.355067" fuel_abs="123624.807602" electricity_abs="0"/>
    </tripinfo>
    <tripinfo id="f_1_12.0" depart="2.00" departLane="A4B4_0" departPos="5.10" departSpeed="0.00" departDelay="0.00" arrival="152.00" arrivalLane="D4E4_0" arrivalPos="492.80" arrivalSpeed="14.56" duration="150.00" routeLength="1994.90" waitingTime="2.00" waitingCount="1" stopTime="0.00" timeLoss="17.61" rerouteNo="0" devices="tripinfo_f_1_12.0 emissions_f_1_12.0" vType="DEFAULT_VEHTYPE" speedFactor="1.09" vaporized="">
        <emissions CO_abs="4438.267835" CO2_abs="414058.094163" HC_abs="29.031204" PMx_abs="6.170401" NOx_abs="156.540095" fuel_abs="132065.811375" electricity_abs="0"/>
    </tripinfo>
    <tripinfo id="f_1_21.3" depart="15.00" departLane="G6G5_0" departPos="5.10" departSpeed="0.00" departDelay="0.00" arrival="152.00" arrivalLane="G4G3_0" arrivalPos="491.30" arrivalSpeed="12.75" duration="137.00" routeLength="1493.50" waitingTime="3.00" waitingCount="1" stopTime="0.00" timeLoss="27.80" rerouteNo="0" devices="tripinfo_f_1_21.3 emissions_f_1_21.3" vType="DEFAULT_VEHTYPE" speedFactor="0.99" vaporized="">
        <emissions CO_abs="5163.811127" CO2_abs="366112.445245" HC_abs="31.659496" PMx_abs="5.676397" NOx_abs="142.978751" fuel_abs="116773.724723" electricity_abs="0"/>
    </tripinfo>
    <tripinfo id="f_1_17.4" depart="24.00" departLane="D6D5_0" departPos="5.10" departSpeed="0.00" departDelay="0.00" arrival="152.00" arrivalLane="D4D3_0" arrivalPos="491.30" arrivalSpeed="14.02" duration="128.00" routeLength="1493.50" waitingTime="5.00" waitingCount="1" stopTime="0.00" timeLoss="26.46" rerouteNo="0" devices="tripinfo_f_1_17.4 emissions_f_1_17.4" vType="DEFAULT_VEHTYPE" speedFactor="1.06" vaporized="">
        <emissions CO_abs="5203.099434" CO2_abs="369856.961136" HC_abs="31.529768" PMx_abs="5.811250" NOx_abs="143.361662" fuel_abs="117968.002985" electricity_abs="0"/>
    </tripinfo>
    <tripinfo id="f_1_20.5" depart="16.00" departLane="G2G3_0" departPos="5.10" departSpeed="0.00" departDelay="1.00" arrival="153.00" arrivalLane="G4G5_0" arrivalPos="492.80" arrivalSpeed="13.82" duration="137.00" routeLength="1494.90" waitingTime="10.00" waitingCount="1" stopTime="0.00" timeLoss="30.55" rerouteNo="0" devices="tripinfo_f_1_20.5 emissions_f_1_20.5" vType="DEFAULT_VEHTYPE" speedFactor="1.02" vaporized="">
        <emissions CO_abs="6366.702050" CO2_abs="374933.533939" HC_abs="37.254282" PMx_abs="6.270036" NOx_abs="148.697144" fuel_abs="119587.438328" electricity_abs="0"/>
    </tripinfo>
    <tripinfo id="f_1_21.4" depart="18.00" departLane="G6G5_0" departPos="5.10" departSpeed="0.00" departDelay="2.00" arrival="154.00" arrivalLane="G4G3_0" arrivalPos="491.30" arrivalSpeed="13.99" duration="136.00" routeLength="1493.50" waitingTime="2.00" waitingCount="1" stopTime="0.00" timeLoss="30.14" rerouteNo="0" devices="tripinfo_f_1_21.4 emissions_f_1_21.4" vType="DEFAULT_VEHTYPE" speedFactor="1.02" vaporized="">
        <emissions CO_abs="5337.238432" CO2_abs="371935.577552" HC_abs="32.608608" PMx_abs="5.946252" NOx_abs="146.480802" fuel_abs="118630.894783" electricity_abs="0"/>
    </tripinfo>
    <tripinfo id="f_1_20.6" depart="19.00" departLane="G2G3_0" departPos="5.10" departSpeed="0.00" departDelay="3.00" arrival="155.00" arrivalLane="G4G5_0" arrivalPos="492.80" arrivalSpeed="13.70" duration="136.00" routeLength="1494.90" waitingTime="9.00" waitingCount="1" stopTime="0.00" timeLoss="31.80" rerouteNo="0" devices="tripinfo_f_1_20.6 emissions_f_1_20.6" vType="DEFAULT_VEHTYPE" speedFactor="1.04" vaporized="">
        <emissions CO_abs="6271.613271" CO2_abs="394120.518867" HC_abs="37.130156" PMx_abs="6.459305" NOx_abs="155.094535" fuel_abs="125707.138965" electricity_abs="0"/>
    </tripinfo>
    <tripinfo id="f_1_20.7" depart="22.00" departLane="G2G3_0" departPos="5.10" departSpeed="0.00" departDelay="3.00" arrival="156.00" arrivalLane="G4G5_0" arrivalPos="492.80" arrivalSpeed="13.72" duration="134.00" routeLength="1494.90" waitingTime="8.00" waitingCount="1" stopTime="0.00" timeLoss="28.16" rerouteNo="0" devices="tripinfo_f_1_20.7 emissions_f_1_20.7" vType="DEFAULT_VEHTYPE" speedFactor="1.02" vaporized="">
        <emissions CO_abs="6030.182991" CO2_abs="385647.887660" HC_abs="36.226386" PMx_abs="6.377336" NOx_abs="152.862239" fuel_abs="123004.634999" electricity_abs="0"/>
    </tripinfo>
    <tripinfo id="f_0_9.2" depart="17.00" departLane="G9G8_0" departPos="5.10" departSpeed="0.00" departDelay="0.00" arrival="157.00" arrivalLane="G7G6_0" arrivalPos="492.80" arrivalSpeed="12.66" duration="140.00" routeLength="1494.90" waitingTime="14.00" waitingCount="1" stopTime="0.00" timeLoss="28.59" rerouteNo="0" devices="tripinfo_f_0_9.2 emissions_f_0_9.2" vType="DEFAULT_VEHTYPE" speedFactor="0.97" vaporized="">
        <emissions CO_abs="5965.876159" CO2_abs="364144.961717" HC_abs="35.287031" PMx_abs="5.603866" NOx_abs="141.323913" fuel_abs="116146.817186" electricity_abs="0"/>
    </tripinfo>
    <tripinfo id="f_0_4.0" depart="41.00" departLane="D5D6_0" departPos="5.10" departSpeed="0.00" departDelay="0.00" arrival="157.00" arrivalLane="D7D8_0" arrivalPos="491.30" arrivalSpeed="14.90" duration="116.00" routeLength="1493.50" waitingTime="3.00" waitingCount="1" stopTime="0.00" timeLoss="16.46" rerouteNo="0" devices="tripinfo_f_0_4.0 emissions_f_0_4.0" vType="DEFAULT_VEHTYPE" speedFactor="1.09" vaporized="">