<?xml version="1.0" encoding="UTF-8"?>

<!-- generated on 2024-08-22 13:36:23 by Eclipse SUMO sumo Version 1.17.0
<configuration xmlns:xsi="http://www.w3.org/2001/XMLSchema-instance" xsi:noNamespaceSchemaLocation="http://sumo.dlr.de/xsd/sumoConfiguration.xsd">

    <input>
        <net-file value="double_actuated.net.xml"/>
        <route-files value="double_4.rou.xml"/>
    </input>

    <output>
        <tripinfo-output value="emissions_test\z_actuated_4_emissions_tripinfo_double.xml"/>
    </output>

    <processing>
        <time-to-teleport value="-1"/>
    </processing>

    <emissions>
        <device.emissions.probability value="1.0"/>
    </emissions>

    <traci_server>
        <remote-port value="58225"/>
    </traci_server>

</configuration>
-->

<tripinfos xmlns:xsi="http://www.w3.org/2001/XMLSchema-instance" xsi:noNamespaceSchemaLocation="http://sumo.dlr.de/xsd/tripinfo_file.xsd">
    <tripinfo id="f_1_17.0" depart="5.00" departLane="D6D5_0" departPos="5.10" departSpeed="0.00" departDelay="0.00" arrival="116.00" arrivalLane="D4D3_0" arrivalPos="491.30" arrivalSpeed="16.02" duration="111.00" routeLength="1493.50" waitingTime="3.00" waitingCount="1" stopTime="0.00" timeLoss="18.34" rerouteNo="0" devices="tripinfo_f_1_17.0 emissions_f_1_17.0" vType="DEFAULT_VEHTYPE" speedFactor="1.17" vaporized="">
        <emissions CO_abs="4185.445018" CO2_abs="345179.196812" HC_abs="26.133281" PMx_abs="5.400670" NOx_abs="131.090947" fuel_abs="110096.541181" electricity_abs="0"/>
    </tripinfo>
    <tripinfo id="f_1_14.0" depart="1.00" departLane="C2C3_0" departPos="5.10" departSpeed="0.00" departDelay="0.00" arrival="118.00" arrivalLane="C4C5_0" arrivalPos="492.80" arrivalSpeed="14.28" duration="117.00" routeLength="1494.90" waitingTime="3.00" waitingCount="1" stopTime="0.00" timeLoss="17.95" rerouteNo="0" devices="tripinfo_f_1_14.0 emissions_f_1_14.0" vType="DEFAULT_VEHTYPE" speedFactor="1.09" vaporized="">
        <emissions CO_abs="3905.925151" CO2_abs="332240.842299" HC_abs="24.676807" PMx_abs="4.868347" NOx_abs="124.804235" fuel_abs="105970.103296" electricity_abs="0"/>
    </tripinfo>
    <tripinfo id="f_0_2.0" depart="0.00" departLane="C5C6_0" departPos="5.10" departSpeed="0.00" departDelay="0.00" arrival="119.00" arrivalLane="C7C8_0" arrivalPos="491.30" arrivalSpeed="13.48" duration="119.00" routeLength="1493.50" waitingTime="4.00" waitingCount="1" stopTime="0.00" timeLoss="16.68" rerouteNo="0" devices="tripinfo_f_0_2.0 emissions_f_0_2.0" vType="DEFAULT_VEHTYPE" speedFactor="1.06" vaporized="">
        <emissions CO_abs="4024.089764" CO2_abs="331605.756936" HC_abs="25.502350" PMx_abs="5.086915" NOx_abs="127.207599" fuel_abs="105767.348642" electricity_abs="0"/>
    </tripinfo>
    <tripinfo id="f_1_16.0" depart="0.00" departLane="D2D3_0" departPos="5.10" departSpeed="0.00" departDelay="0.00" arrival="119.00" arrivalLane="D4D5_0" arrivalPos="492.80" arrivalSpeed="13.12" duration="119.00" routeLength="1494.90" waitingTime="1.00" waitingCount="1" stopTime="0.00" timeLoss="14.36" rerouteNo="0" devices="tripinfo_f_1_16.0 emissions_f_1_16.0" vType="DEFAULT_VEHTYPE" speedFactor="1.03" vaporized="">
        <emissions CO_abs="3706.663917" CO2_abs="325992.903271" HC_abs="23.672943" PMx_abs="4.819944" NOx_abs="123.954348" fuel_abs="103977.104524" electricity_abs="0"/>
    </tripinfo>
    <tripinfo id="f_1_10.0" depart="0.00" departLane="H5H6_0" departPos="5.10" departSpeed="0.00" departDelay="0.00" arrival="120.00" arrivalLane="H7H8_0" arrivalPos="491.30" arrivalSpeed="13.85" duration="120.00" routeLength="1493.50" waitingTime="7.00" waitingCount="1" stopTime="0.00" timeLoss="20.20" rerouteNo="0" devices="tripinfo_f_1_10.0 emissions_f_1_10.0" vType="DEFAULT_VEHTYPE" speedFactor="1.08" vaporized="">
        <emissions CO_abs="4165.755165" CO2_abs="328382.004528" HC_abs="25.638235" PMx_abs="4.784741" NOx_abs="123.219528" fuel_abs="104739.490999" electricity_abs="0"/>
    </tripinfo>
    <tripinfo id="f_1_21.0" depart="4.00" departLane="G6G5_0" departPos="5.10" departSpeed="0.00" departDelay="0.00" arrival="120.00" arrivalLane="G4G3_0" arrivalPos="491.30" arrivalSpeed="16.01" duration="116.00" routeLength="1493.50" waitingTime="12.00" waitingCount="1" stopTime="0.00" timeLoss="23.93" rerouteNo="0" devices="tripinfo_f_1_21.0 emissions_f_1_21.0" vType="DEFAULT_VEHTYPE" speedFactor="1.18" vaporized="">
        <emissions CO_abs="5428.527842" CO2_abs="358565.556660" HC_abs="32.087733" PMx_abs="5.889727" NOx_abs="138.385269" fuel_abs="114366.517258" electricity_abs="0"/>
    </tripinfo>
    <tripinfo id="f_1_16.1" depart="6.00" departLane="D2D3_0" departPos="5.10" departSpeed="0.00" departDelay="0.00" arrival="121.00" arrivalLane="D4D5_0" arrivalPos="492.80" arrivalSpeed="14.17" duration="115.00" routeLength="1494.90" waitingTime="0.00" waitingCount="0" stopTime="0.00" timeLoss="16.86" rerouteNo="0" devices="tripinfo_f_1_16.1 emissions_f_1_16.1" vType="DEFAULT_VEHTYPE" speedFactor="1.10" vaporized="">
        <emissions CO_abs="3729.524257" CO2_abs="333370.532013" HC_abs="24.070743" PMx_abs="5.049241" NOx_abs="126.916809" fuel_abs="106330.108092" electricity_abs="0"/>
    </tripinfo>
    <tripinfo id="f_1_17.1" depart="8.00" departLane="D6D5_0" departPos="5.10" departSpeed="0.00" departDelay="1.00" arrival="121.00" arrivalLane="D4D3_0" arrivalPos="491.30" arrivalSpeed="14.31" duration="113.00" routeLength="1493.50" waitingTime="0.00" waitingCount="0" stopTime="0.00" timeLoss="9.65" rerouteNo="0" devices="tripinfo_f_1_17.1 emissions_f_1_17.1" vType="DEFAULT_VEHTYPE" speedFactor="1.04" vaporized="">
        <emissions CO_abs="2562.048109" CO2_abs="302734.417985" HC_abs="17.525839" PMx_abs="3.957182" NOx_abs="110.502560" fuel_abs="96558.735175" electricity_abs="0"/>
    </tripinfo>
    <tripinfo id="f_1_23.0" depart="5.00" departLane="H6H5_0" departPos="5.10" departSpeed="0.00" departDelay="0.00" arrival="122.00" arrivalLane="H4H3_0" arrivalPos="491.30" arrivalSpeed="13.64" duration="117.00" routeLength="1493.50" waitingTime="0.00" waitingCount="0" stopTime="0.00" timeLoss="8.34" rerouteNo="0" devices="tripinfo_f_1_23.0 emissions_f_1_23.0" vType="DEFAULT_VEHTYPE" speedFactor="0.99" vaporized="">
        <emissions CO_abs="2525.785523" CO2_abs="284491.139511" HC_abs="17.518518" PMx_abs="3.818780" NOx_abs="105.553652" fuel_abs="90739.944550" electricity_abs="0"/>
    </tripinfo>
    <tripinfo id="f_0_5.0" depart="0.00" departLane="D9D8_0" departPos="5.10" departSpeed="0.00" departDelay="0.00" arrival="123.00" arrivalLane="D7D6_0" arrivalPos="492.80" arrivalSpeed="12.95" duration="123.00" routeLength="1494.90" waitingTime="0.00" waitingCount="0" stopTime="0.00" timeLoss="8.22" rerouteNo="0" devices="tripinfo_f_0_5.0 emissions_f_0_5.0" vType="DEFAULT_VEHTYPE" speedFactor="0.94" vaporized="">
        <emissions CO_abs="2771.564647" CO2_abs="298652.678530" HC_abs="18.866312" PMx_abs="3.883642" NOx_abs="110.162324" fuel_abs="95257.067435" electricity_abs="0"/>
    </tripinfo>
    <tripinfo id="f_1_16.2" depart="9.00" departLane="D2D3_0" departPos="5.10" departSpeed="0.00" departDelay="2.00" arrival="123.00" arrivalLane="D4D5_0" arrivalPos="492.80" arrivalSpeed="14.31" duration="114.00" routeLength="1494.90" waitingTime="0.00" waitingCount="0" stopTime="0.00" timeLoss="9.70" rerouteNo="0" devices="tripinfo_f_1_16.2 emissions_f_1_16.2" vType="DEFAULT_VEHTYPE" speedFactor="1.04" vaporized="">
        <emissions CO_abs="2555.082629" CO2_abs="303265.288396" HC_abs="17.620125" PMx_abs="3.904268" NOx_abs="110.303072" fuel_abs="96728.138378" electricity_abs="0"/>
    </tripinfo>
    <tripinfo id="f_1_17.2" depart="11.00" departLane="D6D5_0" departPos="5.10" departSpeed="0.00" departDelay="3.00" arrival="123.00" arrivalLane="D4D3_0" arrivalPos="491.30" arrivalSpeed="16.09" duration="112.00" routeLength="1493.50" waitingTime="0.00" waitingCount="0" stopTime="0.00" timeLoss="19.25" rerouteNo="0" devices="tripinfo_f_1_17.2 emissions_f_1_17.2" vType="DEFAULT_VEHTYPE" speedFactor="1.17" vaporized="">
        <emissions CO_abs="3820.325821" CO2_abs="347528.754880" HC_abs="25.045217" PMx_abs="5.656498" NOx_abs="135.983318" fuel_abs="110845.420175" electricity_abs="0"/>
    </tripinfo>
    <tripinfo id="f_0_2.1" depart="3.00" departLane="C5C6_0" departPos="5.10" departSpeed="0.00" departDelay="0.00" arrival="124.00" arrivalLane="C7C8_0" arrivalPos="491.30" arrivalSpeed="13.42" duration="121.00" routeLength="1493.50" waitingTime="0.00" waitingCount="0" stopTime="0.00" timeLoss="9.79" rerouteNo="0" devices="tripinfo_f_0_2.1 emissions_f_0_2.1" vType="DEFAULT_VEHTYPE" speedFactor="0.97" vaporized="">
        <emissions CO_abs="2836.682133" CO2_abs="304693.299139" HC_abs="19.231175" PMx_abs="4.037565" NOx_abs="112.841974" fuel_abs="97183.654629" electricity_abs="0"/>
    </tripinfo>
    <tripinfo id="f_1_23.1" depart="12.00" departLane="H6H5_0" departPos="5.10" departSpeed="0.00" departDelay="0.00" arrival="124.00" arrivalLane="H4H3_0" arrivalPos="491.30" arrivalSpeed="13.40" duration="112.00" routeLength="1493.50" waitingTime="0.00" waitingCount="0" stopTime="0.00" timeLoss="9.28" rerouteNo="0" devices="tripinfo_f_1_23.1 emissions_f_1_23.1" vType="DEFAULT_VEHTYPE" speedFactor="1.06" vaporized="">
        <emissions CO_abs="2611.921212" CO2_abs="295578.002388" HC_abs="18.132010" PMx_abs="4.150673" NOx_abs="110.298580" fuel_abs="94275.941741" electricity_abs="0"/>
    </tripinfo>
    <tripinfo id="f_1_21.1" depart="16.00" departLane="G6G5_0" departPos="5.10" departSpeed="0.00" departDelay="0.00" arrival="124.00" arrivalLane="G4G3_0" arrivalPos="491.30" arrivalSpeed="15.14" duration="108.00" routeLength="1493.50" waitingTime="0.00" waitingCount="0" stopTime="0.00" timeLoss="8.87" rerouteNo="0" devices="tripinfo_f_1_21.1 emissions_f_1_21.1" vType="DEFAULT_VEHTYPE" speedFactor="1.09" vaporized="">
        <emissions CO_abs="2653.853092" CO2_abs="305796.586625" HC_abs="18.486816" PMx_abs="4.336705" NOx_abs="113.547364" fuel_abs="97535.163409" electricity_abs="0"/>
    </tripinfo>
    <tripinfo id="f_1_9.0" depart="1.00" departLane="G9G8_0" departPos="5.10" departSpeed="0.00" departDelay="0.00" arrival="125.00" arrivalLane="G7G6_0" arrivalPos="492.80" arrivalSpeed="12.17" duration="124.00" routeLength="1494.90" waitingTime="0.00" waitingCount="0" stopTime="0.00" timeLoss="8.32" rerouteNo="0" devices="tripinfo_f_1_9.0 emissions_f_1_9.0" vType="DEFAULT_VEHTYPE" speedFactor="0.94" vaporized="">
        <emissions CO_abs="2510.105832" CO2_abs="287953.272012" HC_abs="17.394328" PMx_abs="3.562776" NOx_abs="104.760562" fuel_abs="91844.545976" electricity_abs="0"/>
    </tripinfo>
    <tripinfo id="f_1_16.3" depart="12.00" departLane="D2D3_0" departPos="5.10" departSpeed="0.00" departDelay="1.00" arrival="125.00" arrivalLane="D4D5_0" arrivalPos="492.80" arrivalSpeed="13.76" duration="113.00" routeLength="1494.90" waitingTime="0.00" waitingCount="0" stopTime="0.00" timeLoss="8.72" rerouteNo="0" devices="tripinfo_f_1_16.3 emissions_f_1_16.3" vType="DEFAULT_VEHTYPE" speedFactor="1.04" vaporized="">
        <emissions CO_abs="2544.441325" CO2_abs="292444.995267" HC_abs="17.951351" PMx_abs="4.094513" NOx_abs="109.061439" fuel_abs="93276.690485" electricity_abs="0"/>
    </tripinfo>
    <tripinfo id="f_1_14.1" depart="4.00" departLane="C2C3_0" departPos="5.10" departSpeed="0.00" departDelay="2.00" arrival="127.00" arrivalLane="C4C5_0" arrivalPos="492.80" arrivalSpeed="12.11" duration="123.00" routeLength="1494.90" waitingTime="0.00" waitingCount="0" stopTime="0.00" timeLoss="8.49" rerouteNo="0" devices="tripinfo_f_1_14.1 emissions_f_1_14.1" vType="DEFAULT_VEHTYPE" speedFactor="0.94" vaporized="">
        <emissions CO_abs="2761.467411" CO2_abs="290549.139913" HC_abs="18.716163" PMx_abs="3.839771" NOx_abs="108.148139" fuel_abs="92672.316645" electricity_abs="0"/>
    </tripinfo>
    <tripinfo id="f_1_15.0" depart="2.00" departLane="C6C5_0" departPos="5.10" departSpeed="0.00" departDelay="0.00" arrival="127.00" arrivalLane="C4C3_0" arrivalPos="491.30" arrivalSpeed="12.69" duration="125.00" routeLength="1493.50" waitingTime="0.00" waitingCount="0" stopTime="0.00" timeLoss="9.26" rerouteNo="0" devices="tripinfo_f_1_15.0 emissions_f_1_15.0" vType="DEFAULT_VEHTYPE" speedFactor="0.94" vaporized="">
        <emissions CO_abs="2456.165857" CO2_abs="289941.931015" HC_abs="17.380756" PMx_abs="3.456870" NOx_abs="105.017312" fuel_abs="92478.947038" electricity_abs="0"/>
    </tripinfo>
    <tripinfo id="f_1_15.1" depart="12.00" departLane="C6C5_0" departPos="5.10" departSpeed="0.00" departDelay="0.00" arrival="128.00" arrivalLane="C4C3_0" arrivalPos="491.30" arrivalSpeed="13.18" duration="116.00" routeLength="1493.50" waitingTime="0.00" waitingCount="0" stopTime="0.00" timeLoss="10.67" rerouteNo="0" devices="tripinfo_f_1_15.1 emissions_f_1_15.1" vType="DEFAULT_VEHTYPE" speedFactor="1.02" vaporized="">
        <emissions CO_abs="2905.028052" CO2_abs="297882.635198" HC_abs="19.654638" PMx_abs="4.310015" NOx_abs="112.755287" fuel_abs="95011.029269" electricity_abs="0"/>
    </tripinfo>
    <tripinfo id="f_1_14.2" depart="9.00" departLane="C2C3_0" departPos="5.10" departSpeed="0.00" departDelay="0.00" arrival="129.00" arrivalLane="C4C5_0" arrivalPos="492.80" arrivalSpeed="14.77" duration="120.00" routeLength="1494.90" waitingTime="0.00" waitingCount="0" stopTime="0.00" timeLoss="25.06" rerouteNo="0" devices="tripinfo_f_1_14.2 emissions_f_1_14.2" vType="DEFAULT_VEHTYPE" speedFactor="1.14" vaporized="">
        <emissions CO_abs="3696.830419" CO2_abs="338661.177163" HC_abs="24.198644" PMx_abs="5.199936" NOx_abs="130.630216" fuel_abs="108017.404561" electricity_abs="0"/>
    </tripinfo>
    <tripinfo id="f_1_15.2" depart="15.00" departLane="C6C5_0" departPos="5.10" departSpeed="0.00" departDelay="0.00" arrival="130.00" arrivalLane="C4C3_0" arrivalPos="491.30" arrivalSpeed="13.53" duration="115.00" routeLength="1493.50" waitingTime="0.00" waitingCount="0" stopTime="0.00" timeLoss="11.32" rerouteNo="0" devices="tripinfo_f_1_15.2 emissions_f_1_15.2" vType="DEFAULT_VEHTYPE" speedFactor="1.04" vaporized="">
        <emissions CO_abs="2927.100386" CO2_abs="306928.917623" HC_abs="19.939907" PMx_abs="4.428181" NOx_abs="116.025137" fuel_abs="97896.360798" electricity_abs="0"/>
    </tripinfo>
    <tripinfo id="f_1_14.3" depart="15.00" departLane="C2C3_0" departPos="5.10" departSpeed="0.00" departDelay="0.00" arrival="131.00" arrivalLane="C4C5_0" arrivalPos="492.80" arrivalSpeed="13.17" duration="116.00" routeLength="1494.90" waitingTime="0.00" waitingCount="0" stopTime="0.00" timeLoss="8.01" rerouteNo="0" devices="tripinfo_f_1_14.3 emissions_f_1_14.3" vType="DEFAULT_VEHTYPE" speedFactor="1.00" vaporized="">
        <emissions CO_abs="2343.368569" CO2_abs="282461.412570" HC_abs="16.566158" PMx_abs="3.646245" NOx_abs="103.228076" fuel_abs="90092.641788" electricity_abs="0"/>
    </tripinfo>
    <tripinfo id="f_1_14.4" depart="18.00" departLane="C2C3_0" departPos="5.10" departSpeed="0.00" departDelay="0.00" arrival="132.00" arrivalLane="C4C5_0" arrivalPos="492.80" arrivalSpeed="15.56" duration="114.00" routeLength="1494.90" waitingTime="0.00" waitingCount="0" stopTime="0.00" timeLoss="18.03" rerouteNo="0" devices="tripinfo_f_1_14.4 emissions_f_1_14.4" vType="DEFAULT_VEHTYPE" speedFactor="1.12" vaporized="">
        <emissions CO_abs="3429.656201" CO2_abs="330717.746424" HC_abs="22.957521" PMx_abs="5.114791" NOx_abs="127.400943" fuel_abs="105483.693825" electricity_abs="0"/>
    </tripinfo>
    <tripinfo id="f_1_15.3" depart="20.00" departLane="C6C5_0" departPos="5.10" departSpeed="0.00" departDelay="0.00" arrival="132.00" arrivalLane="C4C3_0" arrivalPos="491.30" arrivalSpeed="13.70" duration="112.00" routeLength="1493.50" waitingTime="0.00" waitingCount="0" stopTime="0.00" timeLoss="10.18" rerouteNo="0" devices="tripinfo_f_1_15.3 emissions_f_1_15.3" vType="DEFAULT_VEHTYPE" speedFactor="1.06" vaporized="">
        <emissions CO_abs="2539.318442" CO2_abs="301285.196715" HC_abs="17.929045" PMx_abs="4.130385" NOx_abs="111.424357" fuel_abs="96096.352848" electricity_abs="0"/>
    </tripinfo>
    <tripinfo id="f_1_14.5" depart="21.00" departLane="C2C3_0" departPos="5.10" departSpeed="0.00" departDelay="1.00" arrival="134.00" arrivalLane="C4C5_0" arrivalPos="492.80" arrivalSpeed="13.26" duration="113.00" routeLength="1494.90" waitingTime="0.00" waitingCount="0" stopTime="0.00" timeLoss="8.85" rerouteNo="0" devices="tripinfo_f_1_14.5 emissions_f_1_14.5" vType="DEFAULT_VEHTYPE" speedFactor="1.03" vaporized="">
        <emissions CO_abs="2908.196341" CO2_abs="315867.057334" HC_abs="19.957419" PMx_abs="4.512853" NOx_abs="118.612832" fuel_abs="100747.202175" electricity_abs="0"/>
    </tripinfo>
    <tripinfo id="f_1_13.0" depart="4.00" departLane="F4E4_0" departPos="5.10" departSpeed="0.00" departDelay="0.00" arrival="140.00" arrivalLane="C4B4_0" arrivalPos="491.30" arrivalSpeed="15.61" duration="136.00" routeLength="1993.50" waitingTime="0.00" waitingCount="0" stopTime="0.00" timeLoss="8.55" rerouteNo="0" devices="tripinfo_f_1_13.0 emissions_f_1_13.0" vType="DEFAULT_VEHTYPE" speedFactor="1.13" vaporized="">
        <emissions CO_abs="2699.302175" CO2_abs="367107.639861" HC_abs="19.281694" PMx_abs="4.881758" NOx_abs="132.078471" fuel_abs="117090.651485" electricity_abs="0"/>
    </tripinfo>
    <tripinfo id="f_0_3.0" depart="9.00" departLane="C9C8_0" departPos="5.10" departSpeed="0.00" departDelay="0.00" arrival="142.00" arrivalLane="C7C6_0" arrivalPos="492.80" arrivalSpeed="13.16" duration="133.00" routeLength="1494.90" waitingTime="11.00" waitingCount="1" stopTime="0.00" timeLoss="24.97" rerouteNo="0" devices="tripinfo_f_0_3.0 emissions_f_0_3.0" vType="DEFAULT_VEHTYPE" speedFactor="1.00" vaporized="">
        <emissions CO_abs="5168.849072" CO2_abs="344261.481848" HC_abs="30.926740" PMx_abs="5.223096" NOx_abs="132.512960" fuel_abs="109804.603696" electricity_abs="0"/>
    </tripinfo>
    <tripinfo id="f_1_21.2" depart="19.00" departLane="G6G5_0" departPos="5.10" departSpeed="0.00" departDelay="2.00" arrival="142.00" arrivalLane="G4G3_0" arrivalPos="491.30" arrivalSpeed="13.69" duration="123.00" routeLength="1493.50" waitingTime="3.00" waitingCount="1" stopTime="0.00" timeLoss="15.61" rerouteNo="0" devices="tripinfo_f_1_21.2 emissions_f_1_21.2" vType="DEFAULT_VEHTYPE" speedFactor="1.01" vaporized="">
        <emissions CO_abs="3886.387513" CO2_abs="336040.390184" HC_abs="24.922599" PMx_abs="4.894127" NOx_abs="127.736723" fuel_abs="107181.946169" electricity_abs="0"/>
    </tripinfo>
    <tripinfo id="f_1_21.3" depart="22.00" departLane="G6G5_0" departPos="5.10" departSpeed="0.00" departDelay="4.00" arrival="143.00" arrivalLane="G4G3_0" arrivalPos="491.30" arrivalSpeed="14.37" duration="121.00" routeLength="1493.50" waitingTime="2.00" waitingCount="1" stopTime="0.00" timeLoss="22.69" rerouteNo="0" devices="tripinfo_f_1_21.3 emissions_f_1_21.3" vType="DEFAULT_VEHTYPE" speedFactor="1.10" vaporized="">
        <emissions CO_abs="4559.071931" CO2_abs="367922.207448" HC_abs="28.911898" PMx_abs="5.814266" NOx_abs="142.828584" fuel_abs="117350.517925" electricity_abs="0"/>
    </tripinfo>
    <tripinfo id="f_0_4.0" depart="3.00" departLane="D5D6_0" departPos="5.10" departSpeed="0.00" departDelay="0.00" arrival="144.00" arrivalLane="D7D8_0" arrivalPos="491.30" arrivalSpeed="11.69" duration="141.00" routeLength="1493.50" waitingTime="6.00" waitingCount="1" stopTime="0.00" timeLoss="20.01" rerouteNo="0" devices="tripinfo_f_0_4.0 emissions_f_0_4.0" vType="DEFAULT_VEHTYPE" speedFactor="0.89" vaporized="">
        <emissions CO_abs="4664.274958" CO2_abs="329532.119329" HC_abs="28.487918" PMx_abs="4.554098" NOx_abs="124.880539" fuel_abs="105106.906027" electricity_abs="0"/>
    </tripinfo>
    <tripinfo id="f_0_2.2" depart="7.00" departLane="C5C6_0" departPos="5.10" departSpeed="0.00" departDelay="0.00" arrival="145.00" arrivalLane="C7C8_0" arrivalPos="491.30" arrivalSpeed="11.54" duration="138.00" routeLength="1493.50" waitingTime="5.00" waitingCount="1" stopTime="0.00" timeLoss="18.62" rerouteNo="0" devices="tripinfo_f_0_2.2 emissions_f_0_2.2" vType="DEFAULT_VEHTYPE" speedFactor="0.90" vaporized="">
        <emissions CO_abs="4373.446054" CO2_abs="324484.560635" HC_abs="27.147774" PMx_abs="4.491561" NOx_abs="123.086667" fuel_abs="103496.788433" electricity_abs="0"/>
    </tripinfo>
    <tripinfo id="f_0_3.1" depart="12.00" departLane="C9C8_0" departPos="5.10" departSpeed="0.00" departDelay="2.00" arrival="145.00" arrivalLane="C7C6_0" arrivalPos="492.80" arrivalSpeed="12.23" duration="133.00" routeLength="1494.90" waitingTime="8.00" waitingCount="1" stopTime="0.00" timeLoss="21.23" rerouteNo="0" devices="tripinfo_f_0_3.1 emissions_f_0_3.1" vType="DEFAULT_VEHTYPE" speedFactor="0.97" vaporized="">
        <emissions CO_abs="4686.561335" CO2_abs="341261.020513" HC_abs="28.632528" PMx_abs="4.866707" NOx_abs="129.112206" fuel_abs="108847.699293" electricity_abs="0"/>
    </tripinfo>
    <tripinfo id="f_0_5.1" depart="3.00" departLane="D9D8_0" departPos="5.10" departSpeed="0.00" departDelay="0.00" arrival="146.00" arrivalLane="D7D6_0" arrivalPos="492.80" arrivalSpeed="10.30" duration="143.00" routeLength="1494.90" waitingTime="0.00" waitingCount="0" stopTime="0.00" timeLoss="12.38" rerouteNo="0" devices="tripinfo_f_0_5.1 emissions_f_0_5.1" vType="DEFAULT_VEHTYPE" speedFactor="0.83" vaporized="">
        <emissions CO_abs="3869.635600" CO2_abs="314795.116971" HC_abs="24.746417" PMx_abs="4.195388" NOx_abs="119.222733" fuel_abs="100406.172759" electricity_abs="0"/>
    </tripinfo>
    <tripinfo id="f_0_4.1" depart="6.00" departLane="D5D6_0" departPos="5.10" departSpeed="0.00" departDelay="0.00" arrival="146.00" arrivalLane="D7D8_0" arrivalPos="491.30" arrivalSpeed="13.20" duration="140.00" routeLength="1493.50" waitingTime="6.00" waitingCount="1" stopTime="0.00" timeLoss="34.04" rerouteNo="0" devices="tripinfo_f_0_4.1 emissions_f_0_4.1" vType="DEFAULT_VEHTYPE" speedFactor="1.02" vaporized="">
        <emissions CO_abs="5441.149861" CO2_abs="369860.919905" HC_abs="33.234541" PMx_abs="5.755833" NOx_abs="144.981682" fuel_abs="117969.449443" electricity_abs="0"/>
    </tripinfo>
    <tripinfo id="f_1_17.3" depart="16.00" departLane="D6D5_0" departPos="5.10" departSpeed="0.00" departDelay="0.00" arrival="146.00" arrivalLane="D4D3_0" arrivalPos="491.30" arrivalSpeed="12.25" duration="130.00" routeLength="1493.50" waitingTime="0.00" waitingCount="0" stopTime="0.00" timeLoss="9.15" rerouteNo="0" devices="tripinfo_f_1_17.3 emissions_f_1_17.3" vType="DEFAULT_VEHTYPE" speedFactor="0.89" vaporized="">
        <emissions CO_abs="3018.634569" CO2_abs="294875.514005" HC_abs="20.301574" PMx_abs="3.899686" NOx_abs="110.474836" fuel_abs="94052.383554" electricity_abs="0"/>
    </tripinfo>
    <tripinfo id="f_0_2.3" depart="10.00" departLane="C5C6_0" departPos="5.10" departSpeed="0.00" departDelay="2.00" arrival="147.00" arrivalLane="C7C8_0" arrivalPos="491.30" arrivalSpeed="11.97" duration="137.00" routeLength="1493.50" waitingTime="3.00" waitingCount="1" stopTime="0.00" timeLoss="17.56" rerouteNo="0" devices="tripinfo_f_0_2.3 emissions_f_0_2.3" vType="DEFAULT_VEHTYPE" speedFactor="0.90" vaporized="">
        <emissions CO_abs="4318.759260" CO2_abs="334325.757400" HC_abs="27.119169" PMx_abs="4.689955" NOx_abs="127.179556" fuel_abs="106635.526802" electricity_abs="0"/>
    </tripinfo>
    <tripinfo id="f_0_3.2" depart="15.00" departLane="C9C8_0" departPos="5.10" departSpeed="0.00" departDelay="2.00" arrival="147.00" arrivalLane="C7C6_0" arrivalPos="492.80" arrivalSpeed="13.21" duration="132.00" routeLength="1494.90" waitingTime="7.00" waitingCount="1" stopTime="0.00" timeLoss="21.85" rerouteNo="0" devices="tripinfo_f_0_3.2 emissions_f_0_3.2" vType="DEFAULT_VEHTYPE" speedFactor="0.98" vaporized="">
        <emissions CO_abs="4657.908619" CO2_abs="331997.027394" HC_abs="28.237759" PMx_abs="4.832321" NOx_abs="126.347723" fuel_abs="105892.803604" electricity_abs="0"/>
    </tripinfo>
    <tripinfo id="f_0_4.2" depart="9.00" departLane="D5D6_0" departPos="5.10" departSpeed="0.00" departDelay="2.00" arrival="148.00" arrivalLane="D7D8_0" arrivalPos="491.30" arrivalSpeed="13.62" duration="139.00" routeLength="1493.50" waitingTime="5.00" waitingCount="1" stopTime="0.00" timeLoss="33.78" rerouteNo="0" devices="tripinfo_f_0_4.2 emissions_f_0_4.2" vType="DEFAULT_VEHTYPE" speedFactor="1.03" vaporized="">
        <emissions CO_abs="5997.825860" CO2_abs="398573.992463" HC_abs="36.482441" PMx_abs="6.711723" NOx_abs="159.867690" fuel_abs="127127.138767" electricity_abs="0"/>
    </tripinfo>
    <tripinfo id="f_0_5.2" depart="9.00" departLane="D9D8_0" departPos="5.10" departSpeed="0.00" departDelay="0.00" arrival="148.00" arrivalLane="D7D6_0" arrivalPos="492.80" arrivalSpeed="13.42" duration="139.00" routeLength="1494.90" waitingTime="0.00" waitingCount="0" stopTime="0.00" timeLoss="30.19" rerouteNo="0" devices="tripinfo_f_0_5.2 emissions_f_0_5.2" vType="DEFAULT_VEHTYPE" speedFactor="1.00" vaporized="">
        <emissions CO_abs="4569.519674" CO2_abs="353725.327024" HC_abs="28.978461" PMx_abs="5.436469" NOx_abs="138.876903" fuel_abs="112822.542237" electricity_abs="0"/>
    </tripinfo>
    <tripinfo id="f_0_3.3" depart="24.00" departLane="C9C8_0" departPos="5.10" departSpeed="0.00" departDelay="0.00" arrival="148.00" arrivalLane="C7C6_0" arrivalPos="492.80" arrivalSpeed="13.96" duration="124.00" routeLength="1494.90" waitingTime="4.00" waitingCount="1" stopTime="0.00" timeLoss="22.32" rerouteNo="0" devices="tripinfo_f_0_3.3 emissions_f_0_3.3" vType="DEFAULT_VEHTYPE" speedFactor="1.06" vaporized="">
        <emissions CO_abs="4780.496689" CO2_abs="353086.841956" HC_abs="29.465388" PMx_abs="5.543273" NOx_abs="137.022171" fuel_abs="112618.986142" electricity_abs="0"/>
    </tripinfo>
    <tripinfo id="f_1_20.0" depart="0.00" departLane="G2G3_0" departPos="5.10" departSpeed="0.00" departDelay="0.00" arrival="149.00" arrivalLane="G4G5_0" arrivalPos="492.80" arrivalSpeed="10.45" duration="149.00" routeLength="1494.90" waitingTime="6.00" waitingCount="1" stopTime="0.00" timeLoss="19.30" rerouteNo="0" devices="tripinfo_f_1_20.0 emissions_f_1_20.0" vType="DEFAULT_VEHTYPE" speedFactor="0.83" vaporized="">
        <emissions CO_abs="4880.709207" CO2_abs="338198.834350" HC_abs="29.865291" PMx_abs="4.559176" NOx_abs="128.184262" fuel_abs="107871.385235" electricity_abs="0"/>
    </tripinfo>
    <tripinfo id="f_1_9.1" depart="4.00" departLane="G9G8_0" departPos="5.10" departSpeed="0.00" departDelay="1.00" arrival="149.00" arrivalLane="G7G6_0" arrivalPos="492.80" arrivalSpeed="11.43" duration="145.00" routeLength="1494.90" waitingTime="7.00" waitingCount="1" stopTime="0.00" timeLoss="21.31" rerouteNo="0" devices="tripinfo_f_1_9.1 emissions_f_1_9.1" vType="DEFAULT_VEHTYPE" speedFactor="0.87" vaporized="">
        <emissions CO_abs="5149.974567" CO2_abs="350325.135202" HC_abs="31.218355" PMx_abs="4.855739" NOx_abs="133.099218" fuel_abs="111739.089528" electricity_abs="0"/>
    </tripinfo>
    <tripinfo id="f_0_1.0" depart="5.00" departLane="F7E7_0" departPos="5.10" departSpeed="0.00" departDelay="0.00" arrival="149.00" arrivalLane="C7B7_0" arrivalPos="491.30" arrivalSpeed="14.93" duration="144.00" routeLength="1993.50" waitingTime="4.00" waitingCount="1" stopTime="0.00" timeLoss="18.95" rerouteNo="0" devices="tripinfo_f_0_1.0 emissions_f_0_1.0" vType="DEFAULT_VEHTYPE" speedFactor="1.15" vaporized="">
        <emissions CO_abs="4664.987940" CO2_abs="421130.252094" HC_abs="30.012731" PMx_abs="6.390126" NOx_abs="158.293798" fuel_abs="134321.498703" electricity_abs="0"/>
    </tripinfo>
    <tripinfo id="f_0_5.3" depart="12.00" departLane="D9D8_0" departPos="5.10" departSpeed="0.00" departDelay="2.00" arrival="149.00" arrivalLane="D7D6_0" arrivalPos="492.80" arrivalSpeed="14.98" duration="137.00" routeLength="1494.90" waitingTime="0.00" waitingCount="0" stopTime="0.00" timeLoss="40.65" rerouteNo="0" devices="tripinfo_f_0_5.3 emissions_f_0_5.3" vType="DEFAULT_VEHTYPE" speedFactor="1.12" vaporized="">
        <emissions CO_abs="5316.601576" CO2_abs="388621.422595" HC_abs="33.154632" PMx_abs="6.433227" NOx_abs="155.666471" fuel_abs="123952.474709" electricity_abs="0"/>
    </tripinfo>
    <tripinfo id="f_0_2.4" depart="13.00" departLane="C5C6_0" departPos="5.10" departSpeed="0.00" departDelay="0.00" arrival="149.00" arrivalLane="C7C8_0" arrivalPos="491.30" arrivalSpeed="13.00" duration="136.00" routeLength="1493.50" waitingTime="3.00" waitingCount="1" stopTime="0.00" timeLoss="23.05" rerouteNo="0" devices="tripinfo_f_0_2.4 emissions_f_0_2.4" vType="DEFAULT_VEHTYPE" speedFactor="0.96" vaporized="">
        <emissions CO_abs="4644.417848" CO2_abs="345497.700960" HC_abs="28.947405" PMx_abs="5.276795" NOx_abs="134.657397" fuel_abs="110198.482864" electricity_abs="0"/>
    </tripinfo>
    <tripinfo id="f_1_18.0" depart="1.00" departLane="E4F4_0" departPos="5.10" departSpeed="0.00" departDelay="0.00" arrival="151.00" arrivalLane="H4I4_0" arrivalPos="491.30" arrivalSpeed="13.00" duration="150.00" routeLength="1993.50" waitingTime="0.00" waitingCount="0" stopTime="0.00" timeLoss="10.04" rerouteNo="0" devices="tripinfo_f_1_18.0 emissions_f_1_18.0" vType="DEFAULT_VEHTYPE" speedFactor="1.03" vaporized="">
        <emissions CO_abs="2906.709004" CO2_abs="370867.109743" HC_abs="20.495674" PMx_abs="4.659370" NOx_abs="133.806230" fuel_abs="118290.134438" electricity_abs="0"/>
    </tripinfo>
    <tripinfo id="f_1_20.1" depart="3.00" departLane="G2G3_0" departPos="5.10" departSpeed="0.00" departDelay="2.00" arrival="151.00" arrivalLane="G4G5_0" arrivalPos="492.80" arrivalSpeed="14.88" duration="148.00" routeLength="1494.90" waitingTime="5.00" waitingCount="1" stopTime="0.00" timeLoss="51.50" rerouteNo="0" devices="tripinfo_f_1_20.1 emissions_f_1_20.1" vType="DEFAULT_VEHTYPE" speedFactor="1.12" vaporized="">