<?xml version="1.0" encoding="UTF-8"?>

<!-- generated on 2024-08-22 13:36:16 by Eclipse SUMO sumo Version 1.17.0
<configuration xmlns:xsi="http://www.w3.org/2001/XMLSchema-instance" xsi:noNamespaceSchemaLocation="http://sumo.dlr.de/xsd/sumoConfiguration.xsd">

    <input>
        <net-file value="double_actuated.net.xml"/>
        <route-files value="double_2.rou.xml"/>
    </input>

    <output>
        <tripinfo-output value="emissions_test\z_actuated_2_emissions_tripinfo_double.xml"/>
    </output>

    <processing>
        <time-to-teleport value="-1"/>
    </processing>

    <emissions>
        <device.emissions.probability value="1.0"/>
    </emissions>

    <traci_server>
        <remote-port value="58221"/>
    </traci_server>

</configuration>
-->

<tripinfos xmlns:xsi="http://www.w3.org/2001/XMLSchema-instance" xsi:noNamespaceSchemaLocation="http://sumo.dlr.de/xsd/tripinfo_file.xsd">
    <tripinfo id="f_0_14.0" depart="3.00" departLane="C2C3_0" departPos="5.10" departSpeed="0.00" departDelay="0.00" arrival="116.00" arrivalLane="C4C5_0" arrivalPos="492.80" arrivalSpeed="14.63" duration="113.00" routeLength="1494.90" waitingTime="4.00" waitingCount="1" stopTime="0.00" timeLoss="17.11" rerouteNo="0" devices="tripinfo_f_0_14.0 emissions_f_0_14.0" vType="DEFAULT_VEHTYPE" speedFactor="1.12" vaporized="">
        <emissions CO_abs="4167.170094" CO2_abs="344652.247136" HC_abs="26.088159" PMx_abs="5.324624" NOx_abs="131.346344" fuel_abs="109928.517987" electricity_abs="0"/>
    </tripinfo>
    <tripinfo id="f_0_2.0" depart="0.00" departLane="C5C6_0" departPos="5.10" departSpeed="0.00" departDelay="0.00" arrival="118.00" arrivalLane="C7C8_0" arrivalPos="491.30" arrivalSpeed="14.34" duration="118.00" routeLength="1493.50" waitingTime="5.00" waitingCount="1" stopTime="0.00" timeLoss="16.41" rerouteNo="0" devices="tripinfo_f_0_2.0 emissions_f_0_2.0" vType="DEFAULT_VEHTYPE" speedFactor="1.06" vaporized="">
        <emissions CO_abs="4102.539482" CO2_abs="332753.521992" HC_abs="25.799987" PMx_abs="5.074655" NOx_abs="127.042929" fuel_abs="106133.505415" electricity_abs="0"/>
    </tripinfo>
    <tripinfo id="f_0_9.0" depart="3.00" departLane="G9G8_0" departPos="5.10" departSpeed="0.00" departDelay="0.00" arrival="118.00" arrivalLane="G7G6_0" arrivalPos="492.80" arrivalSpeed="13.88" duration="115.00" routeLength="1494.90" waitingTime="0.00" waitingCount="0" stopTime="0.00" timeLoss="9.86" rerouteNo="0" devices="tripinfo_f_0_9.0 emissions_f_0_9.0" vType="DEFAULT_VEHTYPE" speedFactor="1.03" vaporized="">
        <emissions CO_abs="2832.768250" CO2_abs="311125.431860" HC_abs="19.585411" PMx_abs="4.359542" NOx_abs="116.447600" fuel_abs="99234.936042" electricity_abs="0"/>
    </tripinfo>
    <tripinfo id="f_0_14.1" depart="10.00" departLane="C2C3_0" departPos="5.10" departSpeed="0.00" departDelay="0.00" arrival="118.00" arrivalLane="C4C5_0" arrivalPos="492.80" arrivalSpeed="15.52" duration="108.00" routeLength="1494.90" waitingTime="1.00" waitingCount="1" stopTime="0.00" timeLoss="15.78" rerouteNo="0" devices="tripinfo_f_0_14.1 emissions_f_0_14.1" vType="DEFAULT_VEHTYPE" speedFactor="1.17" vaporized="">
        <emissions CO_abs="3664.671831" CO2_abs="337023.326248" HC_abs="23.829005" PMx_abs="5.267845" NOx_abs="128.277593" fuel_abs="107494.970164" electricity_abs="0"/>
    </tripinfo>
    <tripinfo id="f_0_10.0" depart="0.00" departLane="H5H6_0" departPos="5.10" departSpeed="0.00" departDelay="0.00" arrival="120.00" arrivalLane="H7H8_0" arrivalPos="491.30" arrivalSpeed="13.56" duration="120.00" routeLength="1493.50" waitingTime="0.00" waitingCount="0" stopTime="0.00" timeLoss="13.25" rerouteNo="0" devices="tripinfo_f_0_10.0 emissions_f_0_10.0" vType="DEFAULT_VEHTYPE" speedFactor="1.01" vaporized="">
        <emissions CO_abs="3066.239034" CO2_abs="320285.657097" HC_abs="20.581661" PMx_abs="4.283626" NOx_abs="118.473099" fuel_abs="102156.933357" electricity_abs="0"/>
    </tripinfo>
    <tripinfo id="f_0_16.0" depart="0.00" departLane="D2D3_0" departPos="5.10" departSpeed="0.00" departDelay="0.00" arrival="121.00" arrivalLane="D4D5_0" arrivalPos="492.80" arrivalSpeed="14.52" duration="121.00" routeLength="1494.90" waitingTime="7.00" waitingCount="1" stopTime="0.00" timeLoss="20.78" rerouteNo="0" devices="tripinfo_f_0_16.0 emissions_f_0_16.0" vType="DEFAULT_VEHTYPE" speedFactor="1.08" vaporized="">
        <emissions CO_abs="4708.830736" CO2_abs="339534.341300" HC_abs="28.702591" PMx_abs="5.384617" NOx_abs="131.208498" fuel_abs="108296.376212" electricity_abs="0"/>
    </tripinfo>
    <tripinfo id="f_0_2.1" depart="3.00" departLane="C5C6_0" departPos="5.10" departSpeed="0.00" departDelay="2.00" arrival="121.00" arrivalLane="C7C8_0" arrivalPos="491.30" arrivalSpeed="13.95" duration="118.00" routeLength="1493.50" waitingTime="0.00" waitingCount="0" stopTime="0.00" timeLoss="13.30" rerouteNo="0" devices="tripinfo_f_0_2.1 emissions_f_0_2.1" vType="DEFAULT_VEHTYPE" speedFactor="1.03" vaporized="">
        <emissions CO_abs="3231.301298" CO2_abs="325158.445229" HC_abs="21.594731" PMx_abs="4.574689" NOx_abs="122.387299" fuel_abs="103710.940074" electricity_abs="0"/>
    </tripinfo>
    <tripinfo id="f_0_9.1" depart="6.00" departLane="G9G8_0" departPos="5.10" departSpeed="0.00" departDelay="0.00" arrival="121.00" arrivalLane="G7G6_0" arrivalPos="492.80" arrivalSpeed="13.40" duration="115.00" routeLength="1494.90" waitingTime="0.00" waitingCount="0" stopTime="0.00" timeLoss="7.85" rerouteNo="0" devices="tripinfo_f_0_9.1 emissions_f_0_9.1" vType="DEFAULT_VEHTYPE" speedFactor="1.01" vaporized="">
        <emissions CO_abs="2414.230839" CO2_abs="292608.509232" HC_abs="17.014631" PMx_abs="3.791844" NOx_abs="106.996211" fuel_abs="93329.077112" electricity_abs="0"/>
    </tripinfo>
    <tripinfo id="f_0_14.2" depart="13.00" departLane="C2C3_0" departPos="5.10" departSpeed="0.00" departDelay="1.00" arrival="121.00" arrivalLane="C4C5_0" arrivalPos="492.80" arrivalSpeed="15.13" duration="108.00" routeLength="1494.90" waitingTime="0.00" waitingCount="0" stopTime="0.00" timeLoss="9.13" rerouteNo="0" devices="tripinfo_f_0_14.2 emissions_f_0_14.2" vType="DEFAULT_VEHTYPE" speedFactor="1.09" vaporized="">
        <emissions CO_abs="2698.673857" CO2_abs="307690.621854" HC_abs="18.479416" PMx_abs="4.311434" NOx_abs="113.610482" fuel_abs="98139.309133" electricity_abs="0"/>
    </tripinfo>
    <tripinfo id="f_0_17.0" depart="1.00" departLane="D6D5_0" departPos="5.10" departSpeed="0.00" departDelay="0.00" arrival="122.00" arrivalLane="D4D3_0" arrivalPos="491.30" arrivalSpeed="13.65" duration="121.00" routeLength="1493.50" waitingTime="5.00" waitingCount="1" stopTime="0.00" timeLoss="17.57" rerouteNo="0" devices="tripinfo_f_0_17.0 emissions_f_0_17.0" vType="DEFAULT_VEHTYPE" speedFactor="1.05" vaporized="">
        <emissions CO_abs="4187.085044" CO2_abs="335118.354393" HC_abs="26.526989" PMx_abs="5.212752" NOx_abs="129.302638" fuel_abs="106887.720605" electricity_abs="0"/>
    </tripinfo>
    <tripinfo id="f_0_10.1" depart="9.00" departLane="H5H6_0" departPos="5.10" departSpeed="0.00" departDelay="0.00" arrival="122.00" arrivalLane="H7H8_0" arrivalPos="491.30" arrivalSpeed="15.34" duration="113.00" routeLength="1493.50" waitingTime="0.00" waitingCount="0" stopTime="0.00" timeLoss="21.01" rerouteNo="0" devices="tripinfo_f_0_10.1 emissions_f_0_10.1" vType="DEFAULT_VEHTYPE" speedFactor="1.18" vaporized="">
        <emissions CO_abs="3928.955954" CO2_abs="350996.197766" HC_abs="25.681407" PMx_abs="5.623530" NOx_abs="136.325414" fuel_abs="111951.540285" electricity_abs="0"/>
    </tripinfo>
    <tripinfo id="f_0_5.0" depart="0.00" departLane="D9D8_0" departPos="5.10" departSpeed="0.00" departDelay="0.00" arrival="124.00" arrivalLane="D7D6_0" arrivalPos="492.80" arrivalSpeed="12.27" duration="124.00" routeLength="1494.90" waitingTime="0.00" waitingCount="0" stopTime="0.00" timeLoss="8.95" rerouteNo="0" devices="tripinfo_f_0_5.0 emissions_f_0_5.0" vType="DEFAULT_VEHTYPE" speedFactor="0.94" vaporized="">
        <emissions CO_abs="2497.715315" CO2_abs="293519.082013" HC_abs="17.518188" PMx_abs="3.520404" NOx_abs="106.230112" fuel_abs="93619.891820" electricity_abs="0"/>
    </tripinfo>
    <tripinfo id="f_0_16.1" depart="3.00" departLane="D2D3_0" departPos="5.10" departSpeed="0.00" departDelay="0.00" arrival="126.00" arrivalLane="D4D5_0" arrivalPos="492.80" arrivalSpeed="13.10" duration="123.00" routeLength="1494.90" waitingTime="0.00" waitingCount="0" stopTime="0.00" timeLoss="14.12" rerouteNo="0" devices="tripinfo_f_0_16.1 emissions_f_0_16.1" vType="DEFAULT_VEHTYPE" speedFactor="0.99" vaporized="">
        <emissions CO_abs="3468.779279" CO2_abs="324163.174460" HC_abs="22.680589" PMx_abs="4.546838" NOx_abs="121.892026" fuel_abs="103393.668667" electricity_abs="0"/>
    </tripinfo>
    <tripinfo id="f_0_5.1" depart="4.00" departLane="D9D8_0" departPos="5.10" departSpeed="0.00" departDelay="0.00" arrival="127.00" arrivalLane="D7D6_0" arrivalPos="492.80" arrivalSpeed="12.01" duration="123.00" routeLength="1494.90" waitingTime="0.00" waitingCount="0" stopTime="0.00" timeLoss="8.48" rerouteNo="0" devices="tripinfo_f_0_5.1 emissions_f_0_5.1" vType="DEFAULT_VEHTYPE" speedFactor="0.94" vaporized="">
        <emissions CO_abs="2538.645243" CO2_abs="293277.924387" HC_abs="17.737242" PMx_abs="3.607744" NOx_abs="106.609887" fuel_abs="93542.902642" electricity_abs="0"/>
    </tripinfo>
    <tripinfo id="f_0_10.2" depart="13.00" departLane="H5H6_0" departPos="5.10" departSpeed="0.00" departDelay="0.00" arrival="137.00" arrivalLane="H7H8_0" arrivalPos="491.30" arrivalSpeed="12.77" duration="124.00" routeLength="1493.50" waitingTime="2.00" waitingCount="1" stopTime="0.00" timeLoss="15.31" rerouteNo="0" devices="tripinfo_f_0_10.2 emissions_f_0_10.2" vType="DEFAULT_VEHTYPE" speedFactor="1.00" vaporized="">
        <emissions CO_abs="3448.546095" CO2_abs="316144.722886" HC_abs="22.408078" PMx_abs="4.387813" NOx_abs="118.745548" fuel_abs="100836.219518" electricity_abs="0"/>
    </tripinfo>
    <tripinfo id="f_0_10.3" depart="16.00" departLane="H5H6_0" departPos="5.10" departSpeed="0.00" departDelay="1.00" arrival="138.00" arrivalLane="H7H8_0" arrivalPos="491.30" arrivalSpeed="14.75" duration="122.00" routeLength="1493.50" waitingTime="0.00" waitingCount="0" stopTime="0.00" timeLoss="23.63" rerouteNo="0" devices="tripinfo_f_0_10.3 emissions_f_0_10.3" vType="DEFAULT_VEHTYPE" speedFactor="1.10" vaporized="">
        <emissions CO_abs="3829.038686" CO2_abs="333722.022138" HC_abs="24.750063" PMx_abs="5.095321" NOx_abs="128.597418" fuel_abs="106442.207684" electricity_abs="0"/>
    </tripinfo>
    <tripinfo id="f_0_9.2" depart="9.00" departLane="G9G8_0" departPos="5.10" departSpeed="0.00" departDelay="1.00" arrival="139.00" arrivalLane="G7G6_0" arrivalPos="492.80" arrivalSpeed="12.91" duration="130.00" routeLength="1494.90" waitingTime="4.00" waitingCount="1" stopTime="0.00" timeLoss="16.39" rerouteNo="0" devices="tripinfo_f_0_9.2 emissions_f_0_9.2" vType="DEFAULT_VEHTYPE" speedFactor="0.95" vaporized="">
        <emissions CO_abs="4246.949192" CO2_abs="328970.637624" HC_abs="26.543515" PMx_abs="4.876154" NOx_abs="126.546201" fuel_abs="104927.160594" electricity_abs="0"/>
    </tripinfo>
    <tripinfo id="f_0_10.4" depart="19.00" departLane="H5H6_0" departPos="5.10" departSpeed="0.00" departDelay="2.00" arrival="140.00" arrivalLane="H7H8_0" arrivalPos="491.30" arrivalSpeed="14.85" duration="121.00" routeLength="1493.50" waitingTime="0.00" waitingCount="0" stopTime="0.00" timeLoss="21.16" rerouteNo="0" devices="tripinfo_f_0_10.4 emissions_f_0_10.4" vType="DEFAULT_VEHTYPE" speedFactor="1.08" vaporized="">
        <emissions CO_abs="3858.820387" CO2_abs="348133.228015" HC_abs="24.997617" PMx_abs="5.155575" NOx_abs="132.471285" fuel_abs="111038.820737" electricity_abs="0"/>
    </tripinfo>
    <tripinfo id="f_0_9.3" depart="12.00" departLane="G9G8_0" departPos="5.10" departSpeed="0.00" departDelay="1.00" arrival="141.00" arrivalLane="G7G6_0" arrivalPos="492.80" arrivalSpeed="16.06" duration="129.00" routeLength="1494.90" waitingTime="1.00" waitingCount="1" stopTime="0.00" timeLoss="37.05" rerouteNo="0" devices="tripinfo_f_0_9.3 emissions_f_0_9.3" vType="DEFAULT_VEHTYPE" speedFactor="1.18" vaporized="">
        <emissions CO_abs="4869.608890" CO2_abs="370772.860009" HC_abs="30.409193" PMx_abs="5.927014" NOx_abs="145.501957" fuel_abs="118259.793268" electricity_abs="0"/>
    </tripinfo>
    <tripinfo id="f_0_3.0" depart="11.00" departLane="C9C8_0" departPos="5.10" departSpeed="0.00" departDelay="0.00" arrival="142.00" arrivalLane="C7C6_0" arrivalPos="492.80" arrivalSpeed="13.59" duration="131.00" routeLength="1494.90" waitingTime="11.00" waitingCount="1" stopTime="0.00" timeLoss="24.73" rerouteNo="0" devices="tripinfo_f_0_3.0 emissions_f_0_3.0" vType="DEFAULT_VEHTYPE" speedFactor="1.02" vaporized="">
        <emissions CO_abs="5281.169134" CO2_abs="352075.676715" HC_abs="31.437189" PMx_abs="5.347532" NOx_abs="134.724136" fuel_abs="112297.008415" electricity_abs="0"/>
    </tripinfo>
    <tripinfo id="f_0_5.2" depart="11.00" departLane="D9D8_0" departPos="5.10" departSpeed="0.00" departDelay="0.00" arrival="142.00" arrivalLane="D7D6_0" arrivalPos="492.80" arrivalSpeed="12.57" duration="131.00" routeLength="1494.90" waitingTime="5.00" waitingCount="1" stopTime="0.00" timeLoss="19.58" rerouteNo="0" devices="tripinfo_f_0_5.2 emissions_f_0_5.2" vType="DEFAULT_VEHTYPE" speedFactor="0.97" vaporized="">
        <emissions CO_abs="4331.725248" CO2_abs="335251.312718" HC_abs="26.649587" PMx_abs="4.671614" NOx_abs="125.909145" fuel_abs="106930.792685" electricity_abs="0"/>
    </tripinfo>
    <tripinfo id="f_0_9.4" depart="15.00" departLane="G9G8_0" departPos="5.10" departSpeed="0.00" departDelay="2.00" arrival="142.00" arrivalLane="G7G6_0" arrivalPos="492.80" arrivalSpeed="14.60" duration="127.00" routeLength="1494.90" waitingTime="0.00" waitingCount="0" stopTime="0.00" timeLoss="28.05" rerouteNo="0" devices="tripinfo_f_0_9.4 emissions_f_0_9.4" vType="DEFAULT_VEHTYPE" speedFactor="1.09" vaporized="">
        <emissions CO_abs="4934.880281" CO2_abs="363604.436684" HC_abs="30.542669" PMx_abs="5.935488" NOx_abs="143.406109" fuel_abs="115973.326377" electricity_abs="0"/>
    </tripinfo>
    <tripinfo id="f_0_8.0" depart="2.00" departLane="G5G6_0" departPos="5.10" departSpeed="0.00" departDelay="0.00" arrival="143.00" arrivalLane="G7G8_0" arrivalPos="491.30" arrivalSpeed="11.59" duration="141.00" routeLength="1493.50" waitingTime="5.00" waitingCount="1" stopTime="0.00" timeLoss="18.82" rerouteNo="0" devices="tripinfo_f_0_8.0 emissions_f_0_8.0" vType="DEFAULT_VEHTYPE" speedFactor="0.89" vaporized="">
        <emissions CO_abs="4564.250439" CO2_abs="335120.930600" HC_abs="28.365707" PMx_abs="4.693198" NOx_abs="127.732310" fuel_abs="106889.304142" electricity_abs="0"/>
    </tripinfo>
    <tripinfo id="f_0_16.2" depart="8.00" departLane="D2D3_0" departPos="5.10" departSpeed="0.00" departDelay="0.00" arrival="143.00" arrivalLane="D4D5_0" arrivalPos="492.80" arrivalSpeed="12.34" duration="135.00" routeLength="1494.90" waitingTime="5.00" waitingCount="1" stopTime="0.00" timeLoss="18.69" rerouteNo="0" devices="tripinfo_f_0_16.2 emissions_f_0_16.2" vType="DEFAULT_VEHTYPE" speedFactor="0.93" vaporized="">
        <emissions CO_abs="4386.586071" CO2_abs="342987.353114" HC_abs="27.649022" PMx_abs="4.877739" NOx_abs="130.752316" fuel_abs="109398.102733" electricity_abs="0"/>
    </tripinfo>
    <tripinfo id="f_0_8.1" depart="4.00" departLane="G5G6_0" departPos="5.10" departSpeed="0.00" departDelay="1.00" arrival="144.00" arrivalLane="G7G8_0" arrivalPos="491.30" arrivalSpeed="12.77" duration="140.00" routeLength="1493.50" waitingTime="6.00" waitingCount="1" stopTime="0.00" timeLoss="41.29" rerouteNo="0" devices="tripinfo_f_0_8.1 emissions_f_0_8.1" vType="DEFAULT_VEHTYPE" speedFactor="1.09" vaporized="">
        <emissions CO_abs="5682.212695" CO2_abs="373031.201101" HC_abs="34.299486" PMx_abs="5.994335" NOx_abs="147.567249" fuel_abs="118980.516644" electricity_abs="0"/>
    </tripinfo>
    <tripinfo id="f_0_16.3" depart="11.00" departLane="D2D3_0" departPos="5.10" departSpeed="0.00" departDelay="1.00" arrival="144.00" arrivalLane="D4D5_0" arrivalPos="492.80" arrivalSpeed="13.65" duration="133.00" routeLength="1494.90" waitingTime="5.00" waitingCount="1" stopTime="0.00" timeLoss="24.68" rerouteNo="0" devices="tripinfo_f_0_16.3 emissions_f_0_16.3" vType="DEFAULT_VEHTYPE" speedFactor="0.99" vaporized="">
        <emissions CO_abs="4978.704378" CO2_abs="360136.978276" HC_abs="30.685546" PMx_abs="5.676092" NOx_abs="140.895773" fuel_abs="114867.681613" electricity_abs="0"/>
    </tripinfo>
    <tripinfo id="f_0_5.3" depart="14.00" departLane="D9D8_0" departPos="5.10" departSpeed="0.00" departDelay="2.00" arrival="144.00" arrivalLane="D7D6_0" arrivalPos="492.80" arrivalSpeed="12.38" duration="130.00" routeLength="1494.90" waitingTime="3.00" waitingCount="1" stopTime="0.00" timeLoss="17.25" rerouteNo="0" devices="tripinfo_f_0_5.3 emissions_f_0_5.3" vType="DEFAULT_VEHTYPE" speedFactor="0.96" vaporized="">
        <emissions CO_abs="3993.724362" CO2_abs="330288.657470" HC_abs="25.273740" PMx_abs="4.677393" NOx_abs="124.972932" fuel_abs="105347.659184" electricity_abs="0"/>
    </tripinfo>
    <tripinfo id="f_0_2.2" depart="6.00" departLane="C5C6_0" departPos="5.10" departSpeed="0.00" departDelay="1.00" arrival="145.00" arrivalLane="C7C8_0" arrivalPos="491.30" arrivalSpeed="12.22" duration="139.00" routeLength="1493.50" waitingTime="10.00" waitingCount="1" stopTime="0.00" timeLoss="24.11" rerouteNo="0" devices="tripinfo_f_0_2.2 emissions_f_0_2.2" vType="DEFAULT_VEHTYPE" speedFactor="0.94" vaporized="">
        <emissions CO_abs="5207.644008" CO2_abs="337943.029306" HC_abs="30.974393" PMx_abs="4.901516" NOx_abs="128.944579" fuel_abs="107789.639591" electricity_abs="0"/>
    </tripinfo>
    <tripinfo id="f_0_17.1" depart="7.00" departLane="D6D5_0" departPos="5.10" departSpeed="0.00" departDelay="0.00" arrival="145.00" arrivalLane="D4D3_0" arrivalPos="491.30" arrivalSpeed="10.93" duration="138.00" routeLength="1493.50" waitingTime="1.00" waitingCount="1" stopTime="0.00" timeLoss="14.56" rerouteNo="0" devices="tripinfo_f_0_17.1 emissions_f_0_17.1" vType="DEFAULT_VEHTYPE" speedFactor="0.87" vaporized="">
        <emissions CO_abs="3687.391203" CO2_abs="327376.302508" HC_abs="24.157957" PMx_abs="4.159804" NOx_abs="121.951936" fuel_abs="104419.092715" electricity_abs="0"/>
    </tripinfo>
    <tripinfo id="f_0_14.3" depart="16.00" departLane="C2C3_0" departPos="5.10" departSpeed="0.00" departDelay="1.00" arrival="145.00" arrivalLane="C4C5_0" arrivalPos="492.80" arrivalSpeed="13.01" duration="129.00" routeLength="1494.90" waitingTime="10.00" waitingCount="1" stopTime="0.00" timeLoss="21.39" rerouteNo="0" devices="tripinfo_f_0_14.3 emissions_f_0_14.3" vType="DEFAULT_VEHTYPE" speedFactor="1.00" vaporized="">
        <emissions CO_abs="4628.964581" CO2_abs="332080.969373" HC_abs="28.052193" PMx_abs="4.818818" NOx_abs="125.924749" fuel_abs="105919.575905" electricity_abs="0"/>
    </tripinfo>
    <tripinfo id="f_0_9.5" depart="18.00" departLane="G9G8_0" departPos="5.10" departSpeed="0.00" departDelay="1.00" arrival="145.00" arrivalLane="G7G6_0" arrivalPos="492.80" arrivalSpeed="12.87" duration="127.00" routeLength="1494.90" waitingTime="0.00" waitingCount="0" stopTime="0.00" timeLoss="15.39" rerouteNo="0" devices="tripinfo_f_0_9.5 emissions_f_0_9.5" vType="DEFAULT_VEHTYPE" speedFactor="0.97" vaporized="">
        <emissions CO_abs="3584.483386" CO2_abs="319346.060045" HC_abs="23.312977" PMx_abs="4.434339" NOx_abs="120.366305" fuel_abs="101857.385701" electricity_abs="0"/>
    </tripinfo>
    <tripinfo id="f_0_4.0" depart="3.00" departLane="D5D6_0" departPos="5.10" departSpeed="0.00" departDelay="0.00" arrival="146.00" arrivalLane="D7D8_0" arrivalPos="491.30" arrivalSpeed="11.13" duration="143.00" routeLength="1493.50" waitingTime="4.00" waitingCount="1" stopTime="0.00" timeLoss="17.52" rerouteNo="0" devices="tripinfo_f_0_4.0 emissions_f_0_4.0" vType="DEFAULT_VEHTYPE" speedFactor="0.86" vaporized="">
        <emissions CO_abs="4410.444019" CO2_abs="320479.712968" HC_abs="27.363634" PMx_abs="4.438523" NOx_abs="122.227176" fuel_abs="102219.436259" electricity_abs="0"/>
    </tripinfo>
    <tripinfo id="f_0_15.0" depart="16.00" departLane="C6C5_0" departPos="5.10" departSpeed="0.00" departDelay="0.00" arrival="146.00" arrivalLane="C4C3_0" arrivalPos="491.30" arrivalSpeed="13.58" duration="130.00" routeLength="1493.50" waitingTime="9.00" waitingCount="1" stopTime="0.00" timeLoss="21.72" rerouteNo="0" devices="tripinfo_f_0_15.0 emissions_f_0_15.0" vType="DEFAULT_VEHTYPE" speedFactor="1.00" vaporized="">
        <emissions CO_abs="4797.119313" CO2_abs="336802.351047" HC_abs="29.080785" PMx_abs="5.051572" NOx_abs="129.461446" fuel_abs="107425.354088" electricity_abs="0"/>
    </tripinfo>
    <tripinfo id="f_0_5.4" depart="17.00" departLane="D9D8_0" departPos="5.10" departSpeed="0.00" departDelay="0.00" arrival="146.00" arrivalLane="D7D6_0" arrivalPos="492.80" arrivalSpeed="15.71" duration="129.00" routeLength="1494.90" waitingTime="1.00" waitingCount="1" stopTime="0.00" timeLoss="34.05" rerouteNo="0" devices="tripinfo_f_0_5.4 emissions_f_0_5.4" vType="DEFAULT_VEHTYPE" speedFactor="1.14" vaporized="">
        <emissions CO_abs="5208.093410" CO2_abs="377924.563322" HC_abs="32.337079" PMx_abs="6.312037" NOx_abs="150.318348" fuel_abs="120540.713282" electricity_abs="0"/>
    </tripinfo>
    <tripinfo id="f_0_8.2" depart="17.00" departLane="G5G6_0" departPos="5.10" departSpeed="0.00" departDelay="0.00" arrival="146.00" arrivalLane="G7G8_0" arrivalPos="491.30" arrivalSpeed="13.77" duration="129.00" routeLength="1493.50" waitingTime="4.00" waitingCount="1" stopTime="0.00" timeLoss="23.55" rerouteNo="0" devices="tripinfo_f_0_8.2 emissions_f_0_8.2" vType="DEFAULT_VEHTYPE" speedFactor="1.02" vaporized="">
        <emissions CO_abs="4865.306300" CO2_abs="348513.406595" HC_abs="29.998007" PMx_abs="5.529189" NOx_abs="136.419543" fuel_abs="111160.267593" electricity_abs="0"/>
    </tripinfo>
    <tripinfo id="f_0_9.6" depart="21.00" departLane="G9G8_0" departPos="5.10" departSpeed="0.00" departDelay="1.00" arrival="146.00" arrivalLane="G7G6_0" arrivalPos="492.80" arrivalSpeed="14.12" duration="125.00" routeLength="1494.90" waitingTime="0.00" waitingCount="0" stopTime="0.00" timeLoss="19.67" rerouteNo="0" devices="tripinfo_f_0_9.6 emissions_f_0_9.6" vType="DEFAULT_VEHTYPE" speedFactor="1.02" vaporized="">
        <emissions CO_abs="4142.920006" CO2_abs="329665.354589" HC_abs="26.135099" PMx_abs="5.224483" NOx_abs="128.990176" fuel_abs="105148.280297" electricity_abs="0"/>
    </tripinfo>
    <tripinfo id="f_0_4.1" depart="6.00" departLane="D5D6_0" departPos="5.10" departSpeed="0.00" departDelay="2.00" arrival="148.00" arrivalLane="D7D8_0" arrivalPos="491.30" arrivalSpeed="11.80" duration="142.00" routeLength="1493.50" waitingTime="2.00" waitingCount="1" stopTime="0.00" timeLoss="19.37" rerouteNo="0" devices="tripinfo_f_0_4.1 emissions_f_0_4.1" vType="DEFAULT_VEHTYPE" speedFactor="0.88" vaporized="">
        <emissions CO_abs="4704.998560" CO2_abs="349672.941434" HC_abs="29.396459" PMx_abs="5.047952" NOx_abs="134.701739" fuel_abs="111530.533558" electricity_abs="0"/>
    </tripinfo>
    <tripinfo id="f_0_11.0" depart="7.00" departLane="H9H8_0" departPos="5.10" departSpeed="0.00" departDelay="0.00" arrival="148.00" arrivalLane="H7H6_0" arrivalPos="492.80" arrivalSpeed="10.69" duration="141.00" routeLength="1494.90" waitingTime="0.00" waitingCount="0" stopTime="0.00" timeLoss="10.28" rerouteNo="0" devices="tripinfo_f_0_11.0 emissions_f_0_11.0" vType="DEFAULT_VEHTYPE" speedFactor="0.83" vaporized="">
        <emissions CO_abs="3406.713769" CO2_abs="306368.593604" HC_abs="22.421450" PMx_abs="3.753272" NOx_abs="113.578747" fuel_abs="97718.646047" electricity_abs="0"/>
    </tripinfo>
    <tripinfo id="f_0_15.1" depart="20.00" departLane="C6C5_0" departPos="5.10" departSpeed="0.00" departDelay="0.00" arrival="148.00" arrivalLane="C4C3_0" arrivalPos="491.30" arrivalSpeed="13.73" duration="128.00" routeLength="1493.50" waitingTime="6.00" waitingCount="1" stopTime="0.00" timeLoss="25.58" rerouteNo="0" devices="tripinfo_f_0_15.1 emissions_f_0_15.1" vType="DEFAULT_VEHTYPE" speedFactor="1.06" vaporized="">
        <emissions CO_abs="4764.456918" CO2_abs="339526.342225" HC_abs="28.907670" PMx_abs="5.132958" NOx_abs="130.046332" fuel_abs="108294.116590" electricity_abs="0"/>
    </tripinfo>
    <tripinfo id="f_0_2.3" depart="17.00" departLane="C5C6_0" departPos="5.10" departSpeed="0.00" departDelay="0.00" arrival="149.00" arrivalLane="C7C8_0" arrivalPos="491.30" arrivalSpeed="11.73" duration="132.00" routeLength="1493.50" waitingTime="0.00" waitingCount="0" stopTime="0.00" timeLoss="11.74" rerouteNo="0" devices="tripinfo_f_0_2.3 emissions_f_0_2.3" vType="DEFAULT_VEHTYPE" speedFactor="0.90" vaporized="">
        <emissions CO_abs="3145.539410" CO2_abs="314638.303710" HC_abs="21.062167" PMx_abs="3.943711" NOx_abs="115.894264" fuel_abs="100356.079244" electricity_abs="0"/>
    </tripinfo>
    <tripinfo id="f_0_13.0" depart="3.00" departLane="F4E4_0" departPos="5.10" departSpeed="0.00" departDelay="0.00" arrival="150.00" arrivalLane="C4B4_0" arrivalPos="491.30" arrivalSpeed="14.44" duration="147.00" routeLength="1993.50" waitingTime="0.00" waitingCount="0" stopTime="0.00" timeLoss="9.34" rerouteNo="0" devices="tripinfo_f_0_13.0 emissions_f_0_13.0" vType="DEFAULT_VEHTYPE" speedFactor="1.05" vaporized="">
        <emissions CO_abs="2806.743344" CO2_abs="372688.417828" HC_abs="20.140383" PMx_abs="4.732194" NOx_abs="134.181302" fuel_abs="118870.954245" electricity_abs="0"/>
    </tripinfo>
    <tripinfo id="f_0_4.2" depart="9.00" departLane="D5D6_0" departPos="5.10" departSpeed="0.00" departDelay="4.00" arrival="150.00" arrivalLane="D7D8_0" arrivalPos="491.30" arrivalSpeed="14.87" duration="141.00" routeLength="1493.50" waitingTime="2.00" waitingCount="1" stopTime="0.00" timeLoss="47.54" rerouteNo="0" devices="tripinfo_f_0_4.2 emissions_f_0_4.2" vType="DEFAULT_VEHTYPE" speedFactor="1.16" vaporized="">
        <emissions CO_abs="5575.826124" CO2_abs="383391.997132" HC_abs="34.208792" PMx_abs="6.271768" NOx_abs="152.867156" fuel_abs="122284.845732" electricity_abs="0"/>
    </tripinfo>
    <tripinfo id="f_0_11.1" depart="11.00" departLane="H9H8_0" departPos="5.10" departSpeed="0.00" departDelay="0.00" arrival="150.00" arrivalLane="H7H6_0" arrivalPos="492.80" arrivalSpeed="14.04" duration="139.00" routeLength="1494.90" waitingTime="0.00" waitingCount="0" stopTime="0.00" timeLoss="40.70" rerouteNo="0" devices="tripinfo_f_0_11.1 emissions_f_0_11.1" vType="DEFAULT_VEHTYPE" speedFactor="1.10" vaporized="">
        <emissions CO_abs="4342.677453" CO2_abs="347202.672513" HC_abs="27.750242" PMx_abs="5.171508" NOx_abs="135.096165" fuel_abs="110742.215177" electricity_abs="0"/>
    </tripinfo>
    <tripinfo id="f_0_4.3" depart="12.00" departLane="D5D6_0" departPos="5.10" departSpeed="0.00" departDelay="4.00" arrival="152.00" arrivalLane="D7D8_0" arrivalPos="491.30" arrivalSpeed="12.00" duration="140.00" routeLength="1493.50" waitingTime="2.00" waitingCount="1" stopTime="0.00" timeLoss="22.15" rerouteNo="0" devices="tripinfo_f_0_4.3 emissions_f_0_4.3" vType="DEFAULT_VEHTYPE" speedFactor="0.92" vaporized="">
        <emissions CO_abs="5510.703970" CO2_abs="378831.508182" HC_abs="33.719402" PMx_abs="6.125018" NOx_abs="150.438475" fuel_abs="120830.338279" electricity_abs="0"/>
    </tripinfo>
    <tripinfo id="f_0_11.2" depart="14.00" departLane="H9H8_0" departPos="5.10" departSpeed="0.00" departDelay="1.00" arrival="152.00" arrivalLane="H7H6_0" arrivalPos="492.80" arrivalSpeed="12.46" duration="138.00" routeLength="1494.90" waitingTime="0.00" waitingCount="0" stopTime="0.00" timeLoss="17.75" rerouteNo="0" devices="tripinfo_f_0_11.2 emissions_f_0_11.2" vType="DEFAULT_VEHTYPE" speedFactor="0.90" vaporized="">
        <emissions CO_abs="4030.238141" CO2_abs="333670.634811" HC_abs="25.997834" PMx_abs="4.839613" NOx_abs="128.908155" fuel_abs="106426.159153" electricity_abs="0"/>
    </tripinfo>
    <tripinfo id="f_0_4.4" depart="15.00" departLane="D5D6_0" departPos="5.10" departSpeed="0.00" departDelay="5.00" arrival="153.00" arrivalLane="D7D8_0" arrivalPos="491.30" arrivalSpeed="12.99" duration="138.00" routeLength="1493.50" waitingTime="1.00" waitingCount="1" stopTime="0.00" timeLoss="31.03" rerouteNo="0" devices="tripinfo_f_0_4.4 emissions_f_0_4.4" vType="DEFAULT_VEHTYPE" speedFactor="1.01" vaporized="">
        <emissions CO_abs="5888.638798" CO2_abs="394316.976798" HC_abs="35.800133" PMx_abs="6.656195" NOx_abs="158.421932" fuel_abs="125769.273298" electricity_abs="0"/>
    </tripinfo>
    <tripinfo id="f_0_16.4" depart="14.00" departLane="D2D3_0" departPos="5.10" departSpeed="0.00" departDelay="2.00" arrival="154.00" arrivalLane="D4D5_0" arrivalPos="492.80" arrivalSpeed="13.48" duration="140.00" routeLength="1494.90" waitingTime="11.00" waitingCount="2" stopTime="0.00" timeLoss="36.27" rerouteNo="0" devices="tripinfo_f_0_16.4 emissions_f_0_16.4" vType="DEFAULT_VEHTYPE" speedFactor="1.04" vaporized="">
        <emissions CO_abs="6654.459405" CO2_abs="396288.837450" HC_abs="39.175702" PMx_abs="6.567145" NOx_abs="157.144104" fuel_abs="126398.882366" electricity_abs="0"/>
    </tripinfo>
    <tripinfo id="f_0_4.5" depart="18.00" departLane="D5D6_0" departPos="5.10" departSpeed="0.00" departDelay="3.00" arrival="155.00" arrivalLane="D7D8_0" arrivalPos="491.30" arrivalSpeed="13.56" duration="137.00" routeLength="1493.50" waitingTime="0.00" waitingCount="0" stopTime="0.00" timeLoss="30.88" rerouteNo="0" devices="tripinfo_f_0_4.5 emissions_f_0_4.5" vType="DEFAULT_VEHTYPE" speedFactor="1.02" vaporized="">