<?xml version="1.0" encoding="UTF-8"?>

<!-- generated on 2024-08-22 13:36:14 by Eclipse SUMO sumo Version 1.17.0
<configuration xmlns:xsi="http://www.w3.org/2001/XMLSchema-instance" xsi:noNamespaceSchemaLocation="http://sumo.dlr.de/xsd/sumoConfiguration.xsd">

    <input>
        <net-file value="double_actuated.net.xml"/>
        <route-files value="double_1.rou.xml"/>
    </input>

    <output>
        <tripinfo-output value="emissions_test\z_actuated_1_emissions_tripinfo_double.xml"/>
    </output>

    <processing>
        <time-to-teleport value="-1"/>
    </processing>

    <emissions>
        <device.emissions.probability value="1.0"/>
    </emissions>

    <traci_server>
        <remote-port value="58219"/>
    </traci_server>

</configuration>
-->

<tripinfos xmlns:xsi="http://www.w3.org/2001/XMLSchema-instance" xsi:noNamespaceSchemaLocation="http://sumo.dlr.de/xsd/tripinfo_file.xsd">
    <tripinfo id="f_0_8.0" depart="0.00" departLane="G5G6_0" departPos="5.10" departSpeed="0.00" departDelay="0.00" arrival="118.00" arrivalLane="G7G8_0" arrivalPos="491.30" arrivalSpeed="13.51" duration="118.00" routeLength="1493.50" waitingTime="5.00" waitingCount="1" stopTime="0.00" timeLoss="16.21" rerouteNo="0" devices="tripinfo_f_0_8.0 emissions_f_0_8.0" vType="DEFAULT_VEHTYPE" speedFactor="1.06" vaporized="">
        <emissions CO_abs="3988.142411" CO2_abs="328429.970895" HC_abs="25.167276" PMx_abs="4.995289" NOx_abs="125.704944" fuel_abs="104754.445254" electricity_abs="0"/>
    </tripinfo>
    <tripinfo id="f_0_16.0" depart="1.00" departLane="D2D3_0" departPos="5.10" departSpeed="0.00" departDelay="0.00" arrival="118.00" arrivalLane="D4D5_0" arrivalPos="492.80" arrivalSpeed="14.40" duration="117.00" routeLength="1494.90" waitingTime="2.00" waitingCount="1" stopTime="0.00" timeLoss="17.25" rerouteNo="0" devices="tripinfo_f_0_16.0 emissions_f_0_16.0" vType="DEFAULT_VEHTYPE" speedFactor="1.08" vaporized="">
        <emissions CO_abs="3710.402059" CO2_abs="326781.642774" HC_abs="23.593316" PMx_abs="4.778781" NOx_abs="123.109885" fuel_abs="104228.749154" electricity_abs="0"/>
    </tripinfo>
    <tripinfo id="f_0_9.0" depart="2.00" departLane="G9G8_0" departPos="5.10" departSpeed="0.00" departDelay="0.00" arrival="120.00" arrivalLane="G7G6_0" arrivalPos="492.80" arrivalSpeed="13.91" duration="118.00" routeLength="1494.90" waitingTime="0.00" waitingCount="0" stopTime="0.00" timeLoss="12.66" rerouteNo="0" devices="tripinfo_f_0_9.0 emissions_f_0_9.0" vType="DEFAULT_VEHTYPE" speedFactor="1.03" vaporized="">
        <emissions CO_abs="3023.893064" CO2_abs="312288.582739" HC_abs="20.220623" PMx_abs="4.313242" NOx_abs="115.946125" fuel_abs="99606.095747" electricity_abs="0"/>
    </tripinfo>
    <tripinfo id="f_0_8.1" depart="3.00" departLane="G5G6_0" departPos="5.10" departSpeed="0.00" departDelay="0.00" arrival="121.00" arrivalLane="G7G8_0" arrivalPos="491.30" arrivalSpeed="13.53" duration="118.00" routeLength="1493.50" waitingTime="0.00" waitingCount="0" stopTime="0.00" timeLoss="14.54" rerouteNo="0" devices="tripinfo_f_0_8.1 emissions_f_0_8.1" vType="DEFAULT_VEHTYPE" speedFactor="1.05" vaporized="">
        <emissions CO_abs="3617.966205" CO2_abs="324019.358585" HC_abs="23.307686" PMx_abs="4.819342" NOx_abs="123.056850" fuel_abs="103347.587375" electricity_abs="0"/>
    </tripinfo>
    <tripinfo id="f_0_17.0" depart="0.00" departLane="D6D5_0" departPos="5.10" departSpeed="0.00" departDelay="0.00" arrival="123.00" arrivalLane="D4D3_0" arrivalPos="491.30" arrivalSpeed="12.88" duration="123.00" routeLength="1493.50" waitingTime="0.00" waitingCount="0" stopTime="0.00" timeLoss="8.00" rerouteNo="0" devices="tripinfo_f_0_17.0 emissions_f_0_17.0" vType="DEFAULT_VEHTYPE" speedFactor="0.94" vaporized="">
        <emissions CO_abs="2893.140456" CO2_abs="296194.120348" HC_abs="19.595075" PMx_abs="4.056724" NOx_abs="111.155387" fuel_abs="94472.734659" electricity_abs="0"/>
    </tripinfo>
    <tripinfo id="f_0_8.2" depart="6.00" departLane="G5G6_0" departPos="5.10" departSpeed="0.00" departDelay="0.00" arrival="123.00" arrivalLane="G7G8_0" arrivalPos="491.30" arrivalSpeed="13.09" duration="117.00" routeLength="1493.50" waitingTime="0.00" waitingCount="0" stopTime="0.00" timeLoss="12.12" rerouteNo="0" devices="tripinfo_f_0_8.2 emissions_f_0_8.2" vType="DEFAULT_VEHTYPE" speedFactor="1.03" vaporized="">
        <emissions CO_abs="2870.271705" CO2_abs="296136.639181" HC_abs="19.462520" PMx_abs="4.162950" NOx_abs="110.705020" fuel_abs="94454.299120" electricity_abs="0"/>
    </tripinfo>
    <tripinfo id="f_0_17.1" depart="4.00" departLane="D6D5_0" departPos="5.10" departSpeed="0.00" departDelay="0.00" arrival="141.00" arrivalLane="D4D3_0" arrivalPos="491.30" arrivalSpeed="12.22" duration="137.00" routeLength="1493.50" waitingTime="1.00" waitingCount="1" stopTime="0.00" timeLoss="15.19" rerouteNo="0" devices="tripinfo_f_0_17.1 emissions_f_0_17.1" vType="DEFAULT_VEHTYPE" speedFactor="0.89" vaporized="">
        <emissions CO_abs="3864.669591" CO2_abs="337406.996087" HC_abs="24.982126" PMx_abs="4.348597" NOx_abs="125.573645" fuel_abs="107618.459988" electricity_abs="0"/>
    </tripinfo>
    <tripinfo id="f_0_8.3" depart="9.00" departLane="G5G6_0" departPos="5.10" departSpeed="0.00" departDelay="2.00" arrival="141.00" arrivalLane="G7G8_0" arrivalPos="491.30" arrivalSpeed="11.59" duration="132.00" routeLength="1493.50" waitingTime="3.00" waitingCount="1" stopTime="0.00" timeLoss="15.36" rerouteNo="0" devices="tripinfo_f_0_8.3 emissions_f_0_8.3" vType="DEFAULT_VEHTYPE" speedFactor="0.93" vaporized="">
        <emissions CO_abs="3820.219616" CO2_abs="320591.379979" HC_abs="24.342859" PMx_abs="4.388262" NOx_abs="120.677937" fuel_abs="102254.793740" electricity_abs="0"/>
    </tripinfo>
    <tripinfo id="f_0_9.1" depart="5.00" departLane="G9G8_0" departPos="5.10" departSpeed="0.00" departDelay="0.00" arrival="142.00" arrivalLane="G7G6_0" arrivalPos="492.80" arrivalSpeed="10.99" duration="137.00" routeLength="1494.90" waitingTime="0.00" waitingCount="0" stopTime="0.00" timeLoss="11.29" rerouteNo="0" devices="tripinfo_f_0_9.1 emissions_f_0_9.1" vType="DEFAULT_VEHTYPE" speedFactor="0.86" vaporized="">
        <emissions CO_abs="3553.310165" CO2_abs="317353.775536" HC_abs="23.314095" PMx_abs="4.173849" NOx_abs="119.299913" fuel_abs="101222.153538" electricity_abs="0"/>
    </tripinfo>
    <tripinfo id="f_0_16.1" depart="4.00" departLane="D2D3_0" departPos="5.10" departSpeed="0.00" departDelay="2.00" arrival="143.00" arrivalLane="D4D5_0" arrivalPos="492.80" arrivalSpeed="10.46" duration="139.00" routeLength="1494.90" waitingTime="0.00" waitingCount="0" stopTime="0.00" timeLoss="9.31" rerouteNo="0" devices="tripinfo_f_0_16.1 emissions_f_0_16.1" vType="DEFAULT_VEHTYPE" speedFactor="0.83" vaporized="">
        <emissions CO_abs="3154.917299" CO2_abs="299020.174854" HC_abs="21.099183" PMx_abs="3.542882" NOx_abs="109.835085" fuel_abs="95374.863314" electricity_abs="0"/>
    </tripinfo>
    <tripinfo id="f_0_17.2" depart="7.00" departLane="D6D5_0" departPos="5.10" departSpeed="0.00" departDelay="2.00" arrival="143.00" arrivalLane="D4D3_0" arrivalPos="491.30" arrivalSpeed="14.23" duration="136.00" routeLength="1493.50" waitingTime="0.00" waitingCount="0" stopTime="0.00" timeLoss="36.75" rerouteNo="0" devices="tripinfo_f_0_17.2 emissions_f_0_17.2" vType="DEFAULT_VEHTYPE" speedFactor="1.09" vaporized="">
        <emissions CO_abs="5010.101901" CO2_abs="370385.847386" HC_abs="31.197541" PMx_abs="5.949711" NOx_abs="146.637602" fuel_abs="118136.359275" electricity_abs="0"/>
    </tripinfo>
    <tripinfo id="f_0_8.4" depart="12.00" departLane="G5G6_0" departPos="5.10" departSpeed="0.00" departDelay="2.00" arrival="143.00" arrivalLane="G7G8_0" arrivalPos="491.30" arrivalSpeed="13.18" duration="131.00" routeLength="1493.50" waitingTime="1.00" waitingCount="1" stopTime="0.00" timeLoss="24.47" rerouteNo="0" devices="tripinfo_f_0_8.4 emissions_f_0_8.4" vType="DEFAULT_VEHTYPE" speedFactor="1.02" vaporized="">
        <emissions CO_abs="4423.111623" CO2_abs="351954.064411" HC_abs="27.884530" PMx_abs="5.334027" NOx_abs="136.184115" fuel_abs="112257.650771" electricity_abs="0"/>
    </tripinfo>
    <tripinfo id="f_0_9.2" depart="8.00" departLane="G9G8_0" departPos="5.10" departSpeed="0.00" departDelay="2.00" arrival="144.00" arrivalLane="G7G6_0" arrivalPos="492.80" arrivalSpeed="14.09" duration="136.00" routeLength="1494.90" waitingTime="0.00" waitingCount="0" stopTime="0.00" timeLoss="32.75" rerouteNo="0" devices="tripinfo_f_0_9.2 emissions_f_0_9.2" vType="DEFAULT_VEHTYPE" speedFactor="1.05" vaporized="">
        <emissions CO_abs="4735.343718" CO2_abs="367355.280033" HC_abs="29.991005" PMx_abs="5.787162" NOx_abs="144.836976" fuel_abs="117169.745544" electricity_abs="0"/>
    </tripinfo>
    <tripinfo id="f_0_17.3" depart="12.00" departLane="D6D5_0" departPos="5.10" departSpeed="0.00" departDelay="0.00" arrival="144.00" arrivalLane="D4D3_0" arrivalPos="491.30" arrivalSpeed="13.98" duration="132.00" routeLength="1493.50" waitingTime="0.00" waitingCount="0" stopTime="0.00" timeLoss="36.94" rerouteNo="0" devices="tripinfo_f_0_17.3 emissions_f_0_17.3" vType="DEFAULT_VEHTYPE" speedFactor="1.13" vaporized="">
        <emissions CO_abs="5189.914033" CO2_abs="385239.140127" HC_abs="32.169658" PMx_abs="6.236604" NOx_abs="152.176981" fuel_abs="122873.845808" electricity_abs="0"/>
    </tripinfo>
    <tripinfo id="f_0_16.2" depart="7.00" departLane="D2D3_0" departPos="5.10" departSpeed="0.00" departDelay="0.00" arrival="145.00" arrivalLane="D4D5_0" arrivalPos="492.80" arrivalSpeed="11.06" duration="138.00" routeLength="1494.90" waitingTime="0.00" waitingCount="0" stopTime="0.00" timeLoss="15.06" rerouteNo="0" devices="tripinfo_f_0_16.2 emissions_f_0_16.2" vType="DEFAULT_VEHTYPE" speedFactor="0.88" vaporized="">
        <emissions CO_abs="3808.907441" CO2_abs="326240.473387" HC_abs="24.775533" PMx_abs="4.487433" NOx_abs="124.259991" fuel_abs="104056.478228" electricity_abs="0"/>
    </tripinfo>
    <tripinfo id="f_0_9.3" depart="11.00" departLane="G9G8_0" departPos="5.10" departSpeed="0.00" departDelay="1.00" arrival="146.00" arrivalLane="G7G6_0" arrivalPos="492.80" arrivalSpeed="13.19" duration="135.00" routeLength="1494.90" waitingTime="0.00" waitingCount="0" stopTime="0.00" timeLoss="27.77" rerouteNo="0" devices="tripinfo_f_0_9.3 emissions_f_0_9.3" vType="DEFAULT_VEHTYPE" speedFactor="1.01" vaporized="">
        <emissions CO_abs="4789.999329" CO2_abs="377537.003631" HC_abs="30.357642" PMx_abs="6.001379" NOx_abs="149.045740" fuel_abs="120417.126463" electricity_abs="0"/>
    </tripinfo>
    <tripinfo id="f_0_8.5" depart="15.00" departLane="G5G6_0" departPos="5.10" departSpeed="0.00" departDelay="4.00" arrival="146.00" arrivalLane="G7G8_0" arrivalPos="491.30" arrivalSpeed="11.94" duration="131.00" routeLength="1493.50" waitingTime="0.00" waitingCount="0" stopTime="0.00" timeLoss="9.74" rerouteNo="0" devices="tripinfo_f_0_8.5 emissions_f_0_8.5" vType="DEFAULT_VEHTYPE" speedFactor="0.89" vaporized="">
        <emissions CO_abs="2999.940913" CO2_abs="303400.550846" HC_abs="20.301844" PMx_abs="3.785136" NOx_abs="111.976686" fuel_abs="96771.697148" electricity_abs="0"/>
    </tripinfo>
    <tripinfo id="f_0_17.4" depart="22.00" departLane="D6D5_0" departPos="5.10" departSpeed="0.00" departDelay="0.00" arrival="146.00" arrivalLane="D4D3_0" arrivalPos="491.30" arrivalSpeed="15.56" duration="124.00" routeLength="1493.50" waitingTime="0.00" waitingCount="0" stopTime="0.00" timeLoss="32.36" rerouteNo="0" devices="tripinfo_f_0_17.4 emissions_f_0_17.4" vType="DEFAULT_VEHTYPE" speedFactor="1.18" vaporized="">
        <emissions CO_abs="4884.431272" CO2_abs="375518.452850" HC_abs="30.540376" PMx_abs="6.243890" NOx_abs="148.688145" fuel_abs="119773.072545" electricity_abs="0"/>
    </tripinfo>
    <tripinfo id="f_0_16.3" depart="10.00" departLane="D2D3_0" departPos="5.10" departSpeed="0.00" departDelay="1.00" arrival="147.00" arrivalLane="D4D5_0" arrivalPos="492.80" arrivalSpeed="12.10" duration="137.00" routeLength="1494.90" waitingTime="0.00" waitingCount="0" stopTime="0.00" timeLoss="21.34" rerouteNo="0" devices="tripinfo_f_0_16.3 emissions_f_0_16.3" vType="DEFAULT_VEHTYPE" speedFactor="0.94" vaporized="">
        <emissions CO_abs="4690.420915" CO2_abs="358254.069820" HC_abs="29.606093" PMx_abs="5.788690" NOx_abs="142.479224" fuel_abs="114266.725073" electricity_abs="0"/>
    </tripinfo>
    <tripinfo id="f_0_9.4" depart="14.00" departLane="G9G8_0" departPos="5.10" departSpeed="0.00" departDelay="2.00" arrival="148.00" arrivalLane="G7G6_0" arrivalPos="492.80" arrivalSpeed="12.46" duration="134.00" routeLength="1494.90" waitingTime="0.00" waitingCount="0" stopTime="0.00" timeLoss="15.85" rerouteNo="0" devices="tripinfo_f_0_9.4 emissions_f_0_9.4" vType="DEFAULT_VEHTYPE" speedFactor="0.92" vaporized="">
        <emissions CO_abs="4263.710032" CO2_abs="362361.491113" HC_abs="27.639260" PMx_abs="5.376728" NOx_abs="140.208521" fuel_abs="115577.096622" electricity_abs="0"/>
    </tripinfo>
    <tripinfo id="f_0_16.4" depart="13.00" departLane="D2D3_0" departPos="5.10" departSpeed="0.00" departDelay="1.00" arrival="148.00" arrivalLane="D4D5_0" arrivalPos="492.80" arrivalSpeed="12.63" duration="135.00" routeLength="1494.90" waitingTime="0.00" waitingCount="0" stopTime="0.00" timeLoss="21.53" rerouteNo="0" devices="tripinfo_f_0_16.4 emissions_f_0_16.4" vType="DEFAULT_VEHTYPE" speedFactor="0.95" vaporized="">
        <emissions CO_abs="4819.167277" CO2_abs="363974.018155" HC_abs="30.316193" PMx_abs="5.986475" NOx_abs="145.296819" fuel_abs="116091.043391" electricity_abs="0"/>
    </tripinfo>
    <tripinfo id="f_0_17.5" depart="25.00" departLane="D6D5_0" departPos="5.10" departSpeed="0.00" departDelay="2.00" arrival="148.00" arrivalLane="D4D3_0" arrivalPos="491.30" arrivalSpeed="14.56" duration="123.00" routeLength="1493.50" waitingTime="0.00" waitingCount="0" stopTime="0.00" timeLoss="24.72" rerouteNo="0" devices="tripinfo_f_0_17.5 emissions_f_0_17.5" vType="DEFAULT_VEHTYPE" speedFactor="1.10" vaporized="">
        <emissions CO_abs="4353.746729" CO2_abs="361572.688691" HC_abs="27.645330" PMx_abs="5.710873" NOx_abs="140.656996" fuel_abs="115325.159630" electricity_abs="0"/>
    </tripinfo>
    <tripinfo id="f_0_9.5" depart="17.00" departLane="G9G8_0" departPos="5.10" departSpeed="0.00" departDelay="4.00" arrival="149.00" arrivalLane="G7G6_0" arrivalPos="492.80" arrivalSpeed="12.73" duration="132.00" routeLength="1494.90" waitingTime="0.00" waitingCount="0" stopTime="0.00" timeLoss="16.30" rerouteNo="0" devices="tripinfo_f_0_9.5 emissions_f_0_9.5" vType="DEFAULT_VEHTYPE" speedFactor="0.93" vaporized="">
        <emissions CO_abs="4024.957640" CO2_abs="353857.348358" HC_abs="26.216171" PMx_abs="5.134511" NOx_abs="135.902700" fuel_abs="112864.704946" electricity_abs="0"/>
    </tripinfo>
    <tripinfo id="f_0_16.5" depart="16.00" departLane="D2D3_0" departPos="5.10" departSpeed="0.00" departDelay="1.00" arrival="150.00" arrivalLane="D4D5_0" arrivalPos="492.80" arrivalSpeed="14.85" duration="134.00" routeLength="1494.90" waitingTime="0.00" waitingCount="0" stopTime="0.00" timeLoss="40.21" rerouteNo="0" devices="tripinfo_f_0_16.5 emissions_f_0_16.5" vType="DEFAULT_VEHTYPE" speedFactor="1.15" vaporized="">
        <emissions CO_abs="5440.266666" CO2_abs="398513.145771" HC_abs="34.062827" PMx_abs="6.848658" NOx_abs="161.329939" fuel_abs="127107.189755" electricity_abs="0"/>
    </tripinfo>
    <tripinfo id="f_0_17.6" depart="29.00" departLane="D6D5_0" departPos="5.10" departSpeed="0.00" departDelay="0.00" arrival="157.00" arrivalLane="D4D3_0" arrivalPos="491.30" arrivalSpeed="14.08" duration="128.00" routeLength="1493.50" waitingTime="14.00" waitingCount="1" stopTime="0.00" timeLoss="29.03" rerouteNo="0" devices="tripinfo_f_0_17.6 emissions_f_0_17.6" vType="DEFAULT_VEHTYPE" speedFactor="1.09" vaporized="">
        <emissions CO_abs="5892.296095" CO2_abs="366241.054082" HC_abs="34.360349" PMx_abs="5.712057" NOx_abs="140.241242" fuel_abs="116815.219387" electricity_abs="0"/>
    </tripinfo>
    <tripinfo id="f_0_1.0" depart="1.00" departLane="F7E7_0" departPos="5.10" departSpeed="0.00" departDelay="0.00" arrival="165.00" arrivalLane="C7B7_0" arrivalPos="491.30" arrivalSpeed="13.06" duration="164.00" routeLength="1993.50" waitingTime="7.00" waitingCount="1" stopTime="0.00" timeLoss="21.62" rerouteNo="0" devices="tripinfo_f_0_1.0 emissions_f_0_1.0" vType="DEFAULT_VEHTYPE" speedFactor="1.01" vaporized="">
        <emissions CO_abs="4601.349499" CO2_abs="419576.953641" HC_abs="29.479603" PMx_abs="5.538784" NOx_abs="154.287405" fuel_abs="133826.935361" electricity_abs="0"/>
    </tripinfo>
    <tripinfo id="f_0_1.1" depart="7.00" departLane="F7E7_0" departPos="5.10" departSpeed="0.00" departDelay="0.00" arrival="169.00" arrivalLane="C7B7_0" arrivalPos="491.30" arrivalSpeed="13.17" duration="162.00" routeLength="1993.50" waitingTime="0.00" waitingCount="0" stopTime="0.00" timeLoss="16.56" rerouteNo="0" devices="tripinfo_f_0_1.1 emissions_f_0_1.1" vType="DEFAULT_VEHTYPE" speedFactor="0.99" vaporized="">
        <emissions CO_abs="4160.030507" CO2_abs="412032.902562" HC_abs="27.716328" PMx_abs="5.769773" NOx_abs="154.807872" fuel_abs="131420.084776" electricity_abs="0"/>
    </tripinfo>
    <tripinfo id="f_0_0.0" depart="5.00" departLane="A7B7_0" departPos="5.10" departSpeed="0.00" departDelay="0.00" arrival="170.00" arrivalLane="D7E7_0" arrivalPos="492.80" arrivalSpeed="12.24" duration="165.00" routeLength="1994.90" waitingTime="0.00" waitingCount="0" stopTime="0.00" timeLoss="11.04" rerouteNo="0" devices="tripinfo_f_0_0.0 emissions_f_0_0.0" vType="DEFAULT_VEHTYPE" speedFactor="0.94" vaporized="">
        <emissions CO_abs="3490.977583" CO2_abs="394839.520124" HC_abs="24.228004" PMx_abs="5.012570" NOx_abs="145.150006" fuel_abs="125936.462113" electricity_abs="0"/>
    </tripinfo>
    <tripinfo id="f_0_0.1" depart="8.00" departLane="A7B7_0" departPos="5.10" departSpeed="0.00" departDelay="1.00" arrival="171.00" arrivalLane="D7E7_0" arrivalPos="492.80" arrivalSpeed="14.60" duration="163.00" routeLength="1994.90" waitingTime="0.00" waitingCount="0" stopTime="0.00" timeLoss="34.84" rerouteNo="0" devices="tripinfo_f_0_0.1 emissions_f_0_0.1" vType="DEFAULT_VEHTYPE" speedFactor="1.12" vaporized="">
        <emissions CO_abs="4839.726291" CO2_abs="436298.172427" HC_abs="31.946543" PMx_abs="6.788680" NOx_abs="170.074679" fuel_abs="139159.085637" electricity_abs="0"/>
    </tripinfo>
    <tripinfo id="f_0_1.2" depart="11.00" departLane="F7E7_0" departPos="5.10" departSpeed="0.00" departDelay="0.00" arrival="172.00" arrivalLane="C7B7_0" arrivalPos="491.30" arrivalSpeed="12.86" duration="161.00" routeLength="1993.50" waitingTime="0.00" waitingCount="0" stopTime="0.00" timeLoss="12.91" rerouteNo="0" devices="tripinfo_f_0_1.2 emissions_f_0_1.2" vType="DEFAULT_VEHTYPE" speedFactor="0.97" vaporized="">
        <emissions CO_abs="3318.933655" CO2_abs="393713.765725" HC_abs="22.979532" PMx_abs="4.804217" NOx_abs="141.985849" fuel_abs="125577.532320" electricity_abs="0"/>
    </tripinfo>
    <tripinfo id="f_0_1.3" depart="18.00" departLane="F7E7_0" departPos="5.10" departSpeed="0.00" departDelay="0.00" arrival="173.00" arrivalLane="C7B7_0" arrivalPos="491.30" arrivalSpeed="13.75" duration="155.00" routeLength="1993.50" waitingTime="0.00" waitingCount="0" stopTime="0.00" timeLoss="11.96" rerouteNo="0" devices="tripinfo_f_0_1.3 emissions_f_0_1.3" vType="DEFAULT_VEHTYPE" speedFactor="1.01" vaporized="">
        <emissions CO_abs="3132.374174" CO2_abs="383257.433674" HC_abs="21.980982" PMx_abs="4.852860" NOx_abs="139.543242" fuel_abs="122242.129087" electricity_abs="0"/>
    </tripinfo>
    <tripinfo id="f_0_0.2" depart="11.00" departLane="A7B7_0" departPos="5.10" departSpeed="0.00" departDelay="3.00" arrival="175.00" arrivalLane="D7E7_0" arrivalPos="492.80" arrivalSpeed="11.95" duration="164.00" routeLength="1994.90" waitingTime="0.00" waitingCount="0" stopTime="0.00" timeLoss="10.78" rerouteNo="0" devices="tripinfo_f_0_0.2 emissions_f_0_0.2" vType="DEFAULT_VEHTYPE" speedFactor="0.94" vaporized="">
        <emissions CO_abs="3263.515470" CO2_abs="384657.332838" HC_abs="22.999620" PMx_abs="4.744632" NOx_abs="140.223783" fuel_abs="122688.879359" electricity_abs="0"/>
    </tripinfo>
    <tripinfo id="f_0_1.4" depart="21.00" departLane="F7E7_0" departPos="5.10" departSpeed="0.00" departDelay="2.00" arrival="175.00" arrivalLane="C7B7_0" arrivalPos="491.30" arrivalSpeed="15.99" duration="154.00" routeLength="1993.50" waitingTime="0.00" waitingCount="0" stopTime="0.00" timeLoss="30.75" rerouteNo="0" devices="tripinfo_f_0_1.4 emissions_f_0_1.4" vType="DEFAULT_VEHTYPE" speedFactor="1.17" vaporized="">
        <emissions CO_abs="4262.580214" CO2_abs="426977.260301" HC_abs="28.367946" PMx_abs="6.370548" NOx_abs="163.038640" fuel_abs="136186.142151" electricity_abs="0"/>
    </tripinfo>
    <tripinfo id="f_0_9.6" depart="20.00" departLane="G9G8_0" departPos="5.10" departSpeed="0.00" departDelay="1.00" arrival="175.00" arrivalLane="G7G6_0" arrivalPos="492.80" arrivalSpeed="13.40" duration="155.00" routeLength="1494.90" waitingTime="26.00" waitingCount="2" stopTime="0.00" timeLoss="46.29" rerouteNo="0" devices="tripinfo_f_0_9.6 emissions_f_0_9.6" vType="DEFAULT_VEHTYPE" speedFactor="0.99" vaporized="">
        <emissions CO_abs="8960.245648" CO2_abs="434697.221191" HC_abs="50.277351" PMx_abs="7.222775" NOx_abs="172.119225" fuel_abs="138650.508385" electricity_abs="0"/>
    </tripinfo>
    <tripinfo id="f_0_0.3" depart="14.00" departLane="A7B7_0" departPos="5.10" departSpeed="0.00" departDelay="4.00" arrival="176.00" arrivalLane="D7E7_0" arrivalPos="492.80" arrivalSpeed="13.48" duration="162.00" routeLength="1994.90" waitingTime="0.00" waitingCount="0" stopTime="0.00" timeLoss="37.97" rerouteNo="0" devices="tripinfo_f_0_0.3 emissions_f_0_0.3" vType="DEFAULT_VEHTYPE" speedFactor="1.16" vaporized="">
        <emissions CO_abs="4480.404859" CO2_abs="425517.410346" HC_abs="29.636797" PMx_abs="6.331375" NOx_abs="163.291608" fuel_abs="135720.688268" electricity_abs="0"/>
    </tripinfo>
    <tripinfo id="f_0_9.7" depart="25.00" departLane="G9G8_0" departPos="5.10" departSpeed="0.00" departDelay="0.00" arrival="177.00" arrivalLane="G7G6_0" arrivalPos="492.80" arrivalSpeed="13.10" duration="152.00" routeLength="1494.90" waitingTime="25.00" waitingCount="2" stopTime="0.00" timeLoss="46.72" rerouteNo="0" devices="tripinfo_f_0_9.7 emissions_f_0_9.7" vType="DEFAULT_VEHTYPE" speedFactor="1.03" vaporized="">
        <emissions CO_abs="8774.971333" CO2_abs="427625.200810" HC_abs="49.321318" PMx_abs="7.217539" NOx_abs="169.774138" fuel_abs="136394.684397" electricity_abs="0"/>
    </tripinfo>
    <tripinfo id="f_0_9.8" depart="28.00" departLane="G9G8_0" departPos="5.10" departSpeed="0.00" departDelay="0.00" arrival="178.00" arrivalLane="G7G6_0" arrivalPos="492.80" arrivalSpeed="14.36" duration="150.00" routeLength="1494.90" waitingTime="23.00" waitingCount="2" stopTime="0.00" timeLoss="46.02" rerouteNo="0" devices="tripinfo_f_0_9.8 emissions_f_0_9.8" vType="DEFAULT_VEHTYPE" speedFactor="1.04" vaporized="">
        <emissions CO_abs="8722.059868" CO2_abs="433023.098972" HC_abs="49.452224" PMx_abs="7.449065" NOx_abs="173.582423" fuel_abs="138116.109519" electricity_abs="0"/>
    </tripinfo>
    <tripinfo id="f_0_8.6" depart="18.00" departLane="G5G6_0" departPos="5.10" departSpeed="0.00" departDelay="6.00" arrival="180.00" arrivalLane="G7G8_0" arrivalPos="491.30" arrivalSpeed="12.04" duration="162.00" routeLength="1493.50" waitingTime="21.00" waitingCount="2" stopTime="0.00" timeLoss="38.56" rerouteNo="0" devices="tripinfo_f_0_8.6 emissions_f_0_8.6" vType="DEFAULT_VEHTYPE" speedFactor="0.87" vaporized="">
        <emissions CO_abs="7958.451388" CO2_abs="401720.167729" HC_abs="45.337094" PMx_abs="6.209748" NOx_abs="157.515215" fuel_abs="128132.491907" electricity_abs="0"/>
    </tripinfo>
    <tripinfo id="f_0_16.6" depart="24.00" departLane="D2D3_0" departPos="5.10" departSpeed="0.00" departDelay="0.00" arrival="181.00" arrivalLane="D4D5_0" arrivalPos="492.80" arrivalSpeed="12.37" duration="157.00" routeLength="1494.90" waitingTime="17.00" waitingCount="2" stopTime="0.00" timeLoss="36.75" rerouteNo="0" devices="tripinfo_f_0_16.6 emissions_f_0_16.6" vType="DEFAULT_VEHTYPE" speedFactor="0.90" vaporized="">
        <emissions CO_abs="7257.446353" CO2_abs="396364.274560" HC_abs="41.762257" PMx_abs="5.842337" NOx_abs="152.855268" fuel_abs="126424.152941" electricity_abs="0"/>
    </tripinfo>
    <tripinfo id="f_0_8.7" depart="21.00" departLane="G5G6_0" departPos="5.10" departSpeed="0.00" departDelay="6.00" arrival="182.00" arrivalLane="G7G8_0" arrivalPos="491.30" arrivalSpeed="15.67" duration="161.00" routeLength="1493.50" waitingTime="18.00" waitingCount="2" stopTime="0.00" timeLoss="69.20" rerouteNo="0" devices="tripinfo_f_0_8.7 emissions_f_0_8.7" vType="DEFAULT_VEHTYPE" speedFactor="1.18" vaporized="">
        <emissions CO_abs="8806.453527" CO2_abs="439669.296256" HC_abs="50.310377" PMx_abs="7.644208" NOx_abs="178.523509" fuel_abs="140235.782799" electricity_abs="0"/>
    </tripinfo>
    <tripinfo id="f_0_16.7" depart="27.00" departLane="D2D3_0" departPos="5.10" departSpeed="0.00" departDelay="1.00" arrival="182.00" arrivalLane="D4D5_0" arrivalPos="492.80" arrivalSpeed="14.08" duration="155.00" routeLength="1494.90" waitingTime="15.00" waitingCount="2" stopTime="0.00" timeLoss="56.35" rerouteNo="0" devices="tripinfo_f_0_16.7 emissions_f_0_16.7" vType="DEFAULT_VEHTYPE" speedFactor="1.09" vaporized="">
        <emissions CO_abs="8189.504588" CO2_abs="415916.071952" HC_abs="46.750865" PMx_abs="7.159751" NOx_abs="167.761233" fuel_abs="132659.542611" electricity_abs="0"/>
    </tripinfo>
    <tripinfo id="f_0_17.7" depart="32.00" departLane="D6D5_0" departPos="5.10" departSpeed="0.00" departDelay="2.00" arrival="183.00" arrivalLane="D4D3_0" arrivalPos="491.30" arrivalSpeed="10.62" duration="151.00" routeLength="1493.50" waitingTime="4.00" waitingCount="1" stopTime="0.00" timeLoss="24.15" rerouteNo="0" devices="tripinfo_f_0_17.7 emissions_f_0_17.7" vType="DEFAULT_VEHTYPE" speedFactor="0.85" vaporized="">
        <emissions CO_abs="5451.854204" CO2_abs="359978.367005" HC_abs="32.943760" PMx_abs="5.104912" NOx_abs="138.051902" fuel_abs="114818.026680" electricity_abs="0"/>
    </tripinfo>
    <tripinfo id="f_0_16.8" depart="30.00" departLane="D2D3_0" departPos="5.10" departSpeed="0.00" departDelay="2.00" arrival="184.00" arrivalLane="D4D5_0" arrivalPos="492.80" arrivalSpeed="13.91" duration="154.00" routeLength="1494.90" waitingTime="13.00" waitingCount="2" stopTime="0.00" timeLoss="50.52" rerouteNo="0" devices="tripinfo_f_0_16.8 emissions_f_0_16.8" vType="DEFAULT_VEHTYPE" speedFactor="1.04" vaporized="">
        <emissions CO_abs="8396.334796" CO2_abs="440629.883703" HC_abs="48.206814" PMx_abs="7.679306" NOx_abs="178.205894" fuel_abs="140541.895809" electricity_abs="0"/>
    </tripinfo>
    <tripinfo id="f_0_9.9" depart="31.00" departLane="G9G8_0" departPos="5.10" departSpeed="0.00" departDelay="1.00" arrival="184.00" arrivalLane="G7G6_0" arrivalPos="492.80" arrivalSpeed="11.51" duration="153.00" routeLength="1494.90" waitingTime="11.00" waitingCount="1" stopTime="0.00" timeLoss="33.37" rerouteNo="0" devices="tripinfo_f_0_9.9 emissions_f_0_9.9" vType="DEFAULT_VEHTYPE" speedFactor="0.90" vaporized="">
        <emissions CO_abs="6355.000766" CO2_abs="373923.837896" HC_abs="37.229183" PMx_abs="5.528299" NOx_abs="144.332404" fuel_abs="119266.244562" electricity_abs="0"/>
    </tripinfo>
    <tripinfo id="f_0_8.8" depart="32.00" departLane="G5G6_0" departPos="5.10" departSpeed="0.00" departDelay="0.00" arrival="184.00" arrivalLane="G7G8_0" arrivalPos="491.30" arrivalSpeed="12.82" duration="152.00" routeLength="1493.50" waitingTime="13.00" waitingCount="1" stopTime="0.00" timeLoss="44.10" rerouteNo="0" devices="tripinfo_f_0_8.8 emissions_f_0_8.8" vType="DEFAULT_VEHTYPE" speedFactor="1.00" vaporized="">
        <emissions CO_abs="8107.522035" CO2_abs="436769.182049" HC_abs="46.766082" PMx_abs="7.459503" NOx_abs="175.867009" fuel_abs="139310.507594" electricity_abs="0"/>
    </tripinfo>
    <tripinfo id="f_0_17.8" depart="35.00" departLane="D6D5_0" departPos="5.10" departSpeed="0.00" departDelay="2.00" arrival="185.00" arrivalLane="D4D3_0" arrivalPos="491.30" arrivalSpeed="14.92" duration="150.00" routeLength="1493.50" waitingTime="3.00" waitingCount="1" stopTime="0.00" timeLoss="55.08" rerouteNo="0" devices="tripinfo_f_0_17.8 emissions_f_0_17.8" vType="DEFAULT_VEHTYPE" speedFactor="1.14" vaporized="">
        <emissions CO_abs="6534.619311" CO2_abs="402631.317354" HC_abs="39.035284" PMx_abs="6.687857" NOx_abs="161.528456" fuel_abs="128421.623740" electricity_abs="0"/>
    </tripinfo>
    <tripinfo id="f_0_9.10" depart="34.00" departLane="G9G8_0" departPos="5.10" departSpeed="0.00" departDelay="1.00" arrival="186.00" arrivalLane="G7G6_0" arrivalPos="492.80" arrivalSpeed="12.38" duration="152.00" routeLength="1494.90" waitingTime="8.00" waitingCount="1" stopTime="0.00" timeLoss="32.02" rerouteNo="0" devices="tripinfo_f_0_9.10 emissions_f_0_9.10" vType="DEFAULT_VEHTYPE" speedFactor="0.90" vaporized="">
        <emissions CO_abs="6362.258744" CO2_abs="377960.481616" HC_abs="37.443426" PMx_abs="5.666964" NOx_abs="146.628162" fuel_abs="120553.619138" electricity_abs="0"/>
    </tripinfo>
    <tripinfo id="f_0_17.9" depart="38.00" departLane="D6D5_0" departPos="5.10" departSpeed="0.00" departDelay="4.00" arrival="186.00" arrivalLane="D4D3_0" arrivalPos="491.30" arrivalSpeed="12.39" duration="148.00" routeLength="1493.50" waitingTime="2.00" waitingCount="1" stopTime="0.00" timeLoss="37.00" rerouteNo="0" devices="tripinfo_f_0_17.9 emissions_f_0_17.9" vType="DEFAULT_VEHTYPE" speedFactor="0.97" vaporized="">