<?xml version="1.0" encoding="UTF-8"?>

<!-- generated on 2024-08-22 13:34:55 by Eclipse SUMO sumo Version 1.17.0
<configuration xmlns:xsi="http://www.w3.org/2001/XMLSchema-instance" xsi:noNamespaceSchemaLocation="http://sumo.dlr.de/xsd/sumoConfiguration.xsd">

    <input>
        <net-file value="double_no_lights.net.xml"/>
        <route-files value="double_3.rou.xml"/>
    </input>

    <output>
        <tripinfo-output value="emissions_test\z_no_lights_3_emissions_tripinfo_double.xml"/>
    </output>

    <processing>
        <time-to-teleport value="-1"/>
    </processing>

    <emissions>
        <device.emissions.probability value="1.0"/>
    </emissions>

    <traci_server>
        <remote-port value="58197"/>
    </traci_server>

</configuration>
-->

<tripinfos xmlns:xsi="http://www.w3.org/2001/XMLSchema-instance" xsi:noNamespaceSchemaLocation="http://sumo.dlr.de/xsd/tripinfo_file.xsd">
    <tripinfo id="f_1_21.0" depart="3.00" departLane="G6G5_0" departPos="5.10" departSpeed="0.00" departDelay="0.00" arrival="104.00" arrivalLane="G4G3_0" arrivalPos="491.30" arrivalSpeed="15.35" duration="101.00" routeLength="1493.50" waitingTime="0.00" waitingCount="0" stopTime="0.00" timeLoss="7.57" rerouteNo="0" devices="tripinfo_f_1_21.0 emissions_f_1_21.0" vType="DEFAULT_VEHTYPE" speedFactor="1.16" vaporized="">
        <emissions CO_abs="2231.243258" CO2_abs="293435.926212" HC_abs="15.764980" PMx_abs="3.943644" NOx_abs="105.958281" fuel_abs="93592.699242" electricity_abs="0"/>
    </tripinfo>
    <tripinfo id="f_1_20.0" depart="0.00" departLane="G2G3_0" departPos="5.10" departSpeed="0.00" departDelay="0.00" arrival="108.00" arrivalLane="G4G5_0" arrivalPos="492.80" arrivalSpeed="14.87" duration="108.00" routeLength="1494.90" waitingTime="0.00" waitingCount="0" stopTime="0.00" timeLoss="7.63" rerouteNo="0" devices="tripinfo_f_1_20.0 emissions_f_1_20.0" vType="DEFAULT_VEHTYPE" speedFactor="1.08" vaporized="">
        <emissions CO_abs="2284.657291" CO2_abs="290851.176216" HC_abs="16.070302" PMx_abs="3.811721" NOx_abs="105.630554" fuel_abs="92768.415075" electricity_abs="0"/>
    </tripinfo>
    <tripinfo id="f_1_14.0" depart="0.00" departLane="C2C3_0" departPos="5.10" departSpeed="0.00" departDelay="0.00" arrival="114.00" arrivalLane="C4C5_0" arrivalPos="492.80" arrivalSpeed="14.02" duration="114.00" routeLength="1494.90" waitingTime="0.00" waitingCount="0" stopTime="0.00" timeLoss="7.33" rerouteNo="0" devices="tripinfo_f_1_14.0 emissions_f_1_14.0" vType="DEFAULT_VEHTYPE" speedFactor="1.01" vaporized="">
        <emissions CO_abs="2205.846922" CO2_abs="288304.146626" HC_abs="15.989282" PMx_abs="3.590579" NOx_abs="104.486665" fuel_abs="91956.236024" electricity_abs="0"/>
    </tripinfo>
    <tripinfo id="f_1_14.1" depart="3.00" departLane="C2C3_0" departPos="5.10" departSpeed="0.00" departDelay="2.00" arrival="116.00" arrivalLane="C4C5_0" arrivalPos="492.80" arrivalSpeed="13.67" duration="113.00" routeLength="1494.90" waitingTime="0.00" waitingCount="0" stopTime="0.00" timeLoss="9.74" rerouteNo="0" devices="tripinfo_f_1_14.1 emissions_f_1_14.1" vType="DEFAULT_VEHTYPE" speedFactor="1.05" vaporized="">
        <emissions CO_abs="2538.157910" CO2_abs="294232.087395" HC_abs="17.655695" PMx_abs="3.992584" NOx_abs="108.899296" fuel_abs="93846.773775" electricity_abs="0"/>
    </tripinfo>
    <tripinfo id="f_1_15.0" depart="10.00" departLane="C6C5_0" departPos="5.10" departSpeed="0.00" departDelay="0.00" arrival="117.00" arrivalLane="C4C3_0" arrivalPos="491.30" arrivalSpeed="15.09" duration="107.00" routeLength="1493.50" waitingTime="0.00" waitingCount="0" stopTime="0.00" timeLoss="7.64" rerouteNo="0" devices="tripinfo_f_1_15.0 emissions_f_1_15.0" vType="DEFAULT_VEHTYPE" speedFactor="1.09" vaporized="">
        <emissions CO_abs="2422.781425" CO2_abs="295157.770832" HC_abs="16.813371" PMx_abs="4.014617" NOx_abs="107.803149" fuel_abs="94141.947896" electricity_abs="0"/>
    </tripinfo>
    <tripinfo id="f_0_11.0" depart="3.00" departLane="H9H8_0" departPos="5.10" departSpeed="0.00" departDelay="0.00" arrival="121.00" arrivalLane="H7H6_0" arrivalPos="492.80" arrivalSpeed="13.36" duration="118.00" routeLength="1494.90" waitingTime="0.00" waitingCount="0" stopTime="0.00" timeLoss="8.57" rerouteNo="0" devices="tripinfo_f_0_11.0 emissions_f_0_11.0" vType="DEFAULT_VEHTYPE" speedFactor="0.99" vaporized="">
        <emissions CO_abs="2253.159558" CO2_abs="278047.809378" HC_abs="15.930761" PMx_abs="3.435291" NOx_abs="100.805775" fuel_abs="88685.016843" electricity_abs="0"/>
    </tripinfo>
    <tripinfo id="f_1_23.0" depart="10.00" departLane="H6H5_0" departPos="5.10" departSpeed="0.00" departDelay="0.00" arrival="121.00" arrivalLane="H4H3_0" arrivalPos="491.30" arrivalSpeed="14.36" duration="111.00" routeLength="1493.50" waitingTime="0.00" waitingCount="0" stopTime="0.00" timeLoss="7.82" rerouteNo="0" devices="tripinfo_f_1_23.0 emissions_f_1_23.0" vType="DEFAULT_VEHTYPE" speedFactor="1.04" vaporized="">
        <emissions CO_abs="2426.571083" CO2_abs="295732.581637" HC_abs="17.239276" PMx_abs="3.996352" NOx_abs="109.214555" fuel_abs="94325.330752" electricity_abs="0"/>
    </tripinfo>
    <tripinfo id="f_0_9.0" depart="0.00" departLane="G9G8_0" departPos="5.10" departSpeed="0.00" departDelay="0.00" arrival="123.00" arrivalLane="G7G6_0" arrivalPos="492.80" arrivalSpeed="12.19" duration="123.00" routeLength="1494.90" waitingTime="0.00" waitingCount="0" stopTime="0.00" timeLoss="8.22" rerouteNo="0" devices="tripinfo_f_0_9.0 emissions_f_0_9.0" vType="DEFAULT_VEHTYPE" speedFactor="0.94" vaporized="">
        <emissions CO_abs="2479.243438" CO2_abs="294222.625211" HC_abs="17.484631" PMx_abs="3.571527" NOx_abs="106.668746" fuel_abs="93844.231086" electricity_abs="0"/>
    </tripinfo>
    <tripinfo id="f_0_8.0" depart="9.00" departLane="G5G6_0" departPos="5.10" departSpeed="0.00" departDelay="0.00" arrival="123.00" arrivalLane="G7G8_0" arrivalPos="491.30" arrivalSpeed="14.14" duration="114.00" routeLength="1493.50" waitingTime="0.00" waitingCount="0" stopTime="0.00" timeLoss="7.83" rerouteNo="0" devices="tripinfo_f_0_8.0 emissions_f_0_8.0" vType="DEFAULT_VEHTYPE" speedFactor="1.02" vaporized="">
        <emissions CO_abs="2240.239659" CO2_abs="288349.103763" HC_abs="16.123530" PMx_abs="3.658615" NOx_abs="104.718311" fuel_abs="91970.524747" electricity_abs="0"/>
    </tripinfo>
    <tripinfo id="f_0_11.1" depart="10.00" departLane="H9H8_0" departPos="5.10" departSpeed="0.00" departDelay="0.00" arrival="123.00" arrivalLane="H7H6_0" arrivalPos="492.80" arrivalSpeed="14.04" duration="113.00" routeLength="1494.90" waitingTime="0.00" waitingCount="0" stopTime="0.00" timeLoss="8.29" rerouteNo="0" devices="tripinfo_f_0_11.1 emissions_f_0_11.1" vType="DEFAULT_VEHTYPE" speedFactor="1.03" vaporized="">
        <emissions CO_abs="2422.086343" CO2_abs="289822.628471" HC_abs="16.746078" PMx_abs="3.740949" NOx_abs="104.970859" fuel_abs="92440.548987" electricity_abs="0"/>
    </tripinfo>
    <tripinfo id="f_0_9.1" depart="12.00" departLane="G9G8_0" departPos="5.10" departSpeed="0.00" departDelay="0.00" arrival="125.00" arrivalLane="G7G6_0" arrivalPos="492.80" arrivalSpeed="15.39" duration="113.00" routeLength="1494.90" waitingTime="0.00" waitingCount="0" stopTime="0.00" timeLoss="20.35" rerouteNo="0" devices="tripinfo_f_0_9.1 emissions_f_0_9.1" vType="DEFAULT_VEHTYPE" speedFactor="1.17" vaporized="">
        <emissions CO_abs="3010.684459" CO2_abs="312522.569043" HC_abs="20.181250" PMx_abs="4.514439" NOx_abs="117.321382" fuel_abs="99680.485317" electricity_abs="0"/>
    </tripinfo>
    <tripinfo id="f_1_14.2" depart="11.00" departLane="C2C3_0" departPos="5.10" departSpeed="0.00" departDelay="0.00" arrival="127.00" arrivalLane="C4C5_0" arrivalPos="492.80" arrivalSpeed="13.74" duration="116.00" routeLength="1494.90" waitingTime="0.00" waitingCount="0" stopTime="0.00" timeLoss="7.60" rerouteNo="0" devices="tripinfo_f_1_14.2 emissions_f_1_14.2" vType="DEFAULT_VEHTYPE" speedFactor="1.00" vaporized="">
        <emissions CO_abs="2361.138594" CO2_abs="287115.297526" HC_abs="16.692163" PMx_abs="3.669491" NOx_abs="104.652887" fuel_abs="91577.046032" electricity_abs="0"/>
    </tripinfo>
    <tripinfo id="f_1_20.1" depart="3.00" departLane="G2G3_0" departPos="5.10" departSpeed="0.00" departDelay="0.00" arrival="128.00" arrivalLane="G4G5_0" arrivalPos="492.80" arrivalSpeed="12.72" duration="125.00" routeLength="1494.90" waitingTime="0.00" waitingCount="0" stopTime="0.00" timeLoss="9.83" rerouteNo="0" devices="tripinfo_f_1_20.1 emissions_f_1_20.1" vType="DEFAULT_VEHTYPE" speedFactor="0.94" vaporized="">
        <emissions CO_abs="2633.291722" CO2_abs="301310.762830" HC_abs="18.496015" PMx_abs="3.635027" NOx_abs="109.835368" fuel_abs="96105.082949" electricity_abs="0"/>
    </tripinfo>
    <tripinfo id="f_0_11.2" depart="18.00" departLane="H9H8_0" departPos="5.10" departSpeed="0.00" departDelay="0.00" arrival="128.00" arrivalLane="H7H6_0" arrivalPos="492.80" arrivalSpeed="14.37" duration="110.00" routeLength="1494.90" waitingTime="0.00" waitingCount="0" stopTime="0.00" timeLoss="7.48" rerouteNo="0" devices="tripinfo_f_0_11.2 emissions_f_0_11.2" vType="DEFAULT_VEHTYPE" speedFactor="1.06" vaporized="">
        <emissions CO_abs="2409.518907" CO2_abs="289514.624528" HC_abs="16.824362" PMx_abs="3.899046" NOx_abs="106.384047" fuel_abs="92342.099715" electricity_abs="0"/>
    </tripinfo>
    <tripinfo id="f_1_16.0" depart="3.00" departLane="D2D3_0" departPos="5.10" departSpeed="0.00" departDelay="0.00" arrival="129.00" arrivalLane="D4D5_0" arrivalPos="492.80" arrivalSpeed="11.60" duration="126.00" routeLength="1494.90" waitingTime="0.00" waitingCount="0" stopTime="0.00" timeLoss="9.06" rerouteNo="0" devices="tripinfo_f_1_16.0 emissions_f_1_16.0" vType="DEFAULT_VEHTYPE" speedFactor="0.93" vaporized="">
        <emissions CO_abs="2841.598800" CO2_abs="296581.213338" HC_abs="19.307970" PMx_abs="3.825233" NOx_abs="109.762632" fuel_abs="94596.427861" electricity_abs="0"/>
    </tripinfo>
    <tripinfo id="f_1_14.3" depart="14.00" departLane="C2C3_0" departPos="5.10" departSpeed="0.00" departDelay="2.00" arrival="129.00" arrivalLane="C4C5_0" arrivalPos="492.80" arrivalSpeed="13.36" duration="115.00" routeLength="1494.90" waitingTime="0.00" waitingCount="0" stopTime="0.00" timeLoss="8.51" rerouteNo="0" devices="tripinfo_f_1_14.3 emissions_f_1_14.3" vType="DEFAULT_VEHTYPE" speedFactor="1.02" vaporized="">
        <emissions CO_abs="2391.538505" CO2_abs="293168.621788" HC_abs="16.808575" PMx_abs="3.775007" NOx_abs="107.178450" fuel_abs="93507.714728" electricity_abs="0"/>
    </tripinfo>
    <tripinfo id="f_1_16.1" depart="6.00" departLane="D2D3_0" departPos="5.10" departSpeed="0.00" departDelay="2.00" arrival="130.00" arrivalLane="D4D5_0" arrivalPos="492.80" arrivalSpeed="13.50" duration="124.00" routeLength="1494.90" waitingTime="0.00" waitingCount="0" stopTime="0.00" timeLoss="17.29" rerouteNo="0" devices="tripinfo_f_1_16.1 emissions_f_1_16.1" vType="DEFAULT_VEHTYPE" speedFactor="1.01" vaporized="">
        <emissions CO_abs="3346.623602" CO2_abs="322088.836752" HC_abs="22.468150" PMx_abs="4.664254" NOx_abs="123.096133" fuel_abs="102731.814331" electricity_abs="0"/>
    </tripinfo>
    <tripinfo id="f_1_20.2" depart="7.00" departLane="G2G3_0" departPos="5.10" departSpeed="0.00" departDelay="0.00" arrival="130.00" arrivalLane="G4G5_0" arrivalPos="492.80" arrivalSpeed="15.48" duration="123.00" routeLength="1494.90" waitingTime="0.00" waitingCount="0" stopTime="0.00" timeLoss="31.05" rerouteNo="0" devices="tripinfo_f_1_20.2 emissions_f_1_20.2" vType="DEFAULT_VEHTYPE" speedFactor="1.18" vaporized="">
        <emissions CO_abs="3948.885314" CO2_abs="357262.867760" HC_abs="26.171282" PMx_abs="5.516529" NOx_abs="138.955249" fuel_abs="113950.495838" electricity_abs="0"/>
    </tripinfo>
    <tripinfo id="f_1_15.1" depart="13.00" departLane="C6C5_0" departPos="5.10" departSpeed="0.00" departDelay="0.00" arrival="130.00" arrivalLane="C4C3_0" arrivalPos="491.30" arrivalSpeed="12.71" duration="117.00" routeLength="1493.50" waitingTime="0.00" waitingCount="0" stopTime="0.00" timeLoss="9.08" rerouteNo="0" devices="tripinfo_f_1_15.1 emissions_f_1_15.1" vType="DEFAULT_VEHTYPE" speedFactor="1.00" vaporized="">
        <emissions CO_abs="2311.999871" CO2_abs="293726.313486" HC_abs="16.421510" PMx_abs="3.521758" NOx_abs="105.061259" fuel_abs="93685.874912" electricity_abs="0"/>
    </tripinfo>
    <tripinfo id="f_1_17.0" depart="1.00" departLane="D6D5_0" departPos="5.10" departSpeed="0.00" departDelay="0.00" arrival="131.00" arrivalLane="D4D3_0" arrivalPos="491.30" arrivalSpeed="11.46" duration="130.00" routeLength="1493.50" waitingTime="0.00" waitingCount="0" stopTime="0.00" timeLoss="8.44" rerouteNo="0" devices="tripinfo_f_1_17.0 emissions_f_1_17.0" vType="DEFAULT_VEHTYPE" speedFactor="0.89" vaporized="">
        <emissions CO_abs="2789.772969" CO2_abs="292304.622490" HC_abs="19.063715" PMx_abs="3.590924" NOx_abs="107.248075" fuel_abs="93232.597871" electricity_abs="0"/>
    </tripinfo>
    <tripinfo id="f_1_20.3" depart="10.00" departLane="G2G3_0" departPos="5.10" departSpeed="0.00" departDelay="1.00" arrival="131.00" arrivalLane="G4G5_0" arrivalPos="492.80" arrivalSpeed="15.45" duration="121.00" routeLength="1494.90" waitingTime="0.00" waitingCount="0" stopTime="0.00" timeLoss="29.70" rerouteNo="0" devices="tripinfo_f_1_20.3 emissions_f_1_20.3" vType="DEFAULT_VEHTYPE" speedFactor="1.18" vaporized="">
        <emissions CO_abs="4094.235024" CO2_abs="364769.019373" HC_abs="26.790139" PMx_abs="5.749896" NOx_abs="142.568892" fuel_abs="116344.501586" electricity_abs="0"/>
    </tripinfo>
    <tripinfo id="f_1_16.2" depart="9.00" departLane="D2D3_0" departPos="5.10" departSpeed="0.00" departDelay="1.00" arrival="132.00" arrivalLane="D4D5_0" arrivalPos="492.80" arrivalSpeed="12.92" duration="123.00" routeLength="1494.90" waitingTime="0.00" waitingCount="0" stopTime="0.00" timeLoss="15.46" rerouteNo="0" devices="tripinfo_f_1_16.2 emissions_f_1_16.2" vType="DEFAULT_VEHTYPE" speedFactor="1.01" vaporized="">
        <emissions CO_abs="3503.705067" CO2_abs="322033.718750" HC_abs="23.176700" PMx_abs="4.851426" NOx_abs="124.328954" fuel_abs="102714.109166" electricity_abs="0"/>
    </tripinfo>
    <tripinfo id="f_1_17.1" depart="7.00" departLane="D6D5_0" departPos="5.10" departSpeed="0.00" departDelay="0.00" arrival="133.00" arrivalLane="D4D3_0" arrivalPos="491.30" arrivalSpeed="12.09" duration="126.00" routeLength="1493.50" waitingTime="0.00" waitingCount="0" stopTime="0.00" timeLoss="10.07" rerouteNo="0" devices="tripinfo_f_1_17.1 emissions_f_1_17.1" vType="DEFAULT_VEHTYPE" speedFactor="0.93" vaporized="">
        <emissions CO_abs="2949.354207" CO2_abs="303824.886082" HC_abs="19.931920" PMx_abs="4.027773" NOx_abs="113.108925" fuel_abs="96906.755737" electricity_abs="0"/>
    </tripinfo>
    <tripinfo id="f_1_20.4" depart="13.00" departLane="G2G3_0" departPos="5.10" departSpeed="0.00" departDelay="3.00" arrival="133.00" arrivalLane="G4G5_0" arrivalPos="492.80" arrivalSpeed="14.13" duration="120.00" routeLength="1494.90" waitingTime="0.00" waitingCount="0" stopTime="0.00" timeLoss="16.07" rerouteNo="0" devices="tripinfo_f_1_20.4 emissions_f_1_20.4" vType="DEFAULT_VEHTYPE" speedFactor="1.04" vaporized="">
        <emissions CO_abs="4020.098932" CO2_abs="347957.426490" HC_abs="26.282858" PMx_abs="5.635776" NOx_abs="137.033121" fuel_abs="110982.288961" electricity_abs="0"/>
    </tripinfo>
    <tripinfo id="f_1_16.3" depart="24.00" departLane="D2D3_0" departPos="5.10" departSpeed="0.00" departDelay="0.00" arrival="134.00" arrivalLane="D4D5_0" arrivalPos="492.80" arrivalSpeed="14.76" duration="110.00" routeLength="1494.90" waitingTime="0.00" waitingCount="0" stopTime="0.00" timeLoss="11.09" rerouteNo="0" devices="tripinfo_f_1_16.3 emissions_f_1_16.3" vType="DEFAULT_VEHTYPE" speedFactor="1.10" vaporized="">
        <emissions CO_abs="2789.115147" CO2_abs="304452.824955" HC_abs="18.846883" PMx_abs="4.296247" NOx_abs="112.816870" fuel_abs="97106.615709" electricity_abs="0"/>
    </tripinfo>
    <tripinfo id="f_1_17.2" depart="10.00" departLane="D6D5_0" departPos="5.10" departSpeed="0.00" departDelay="1.00" arrival="135.00" arrivalLane="D4D3_0" arrivalPos="491.30" arrivalSpeed="12.52" duration="125.00" routeLength="1493.50" waitingTime="0.00" waitingCount="0" stopTime="0.00" timeLoss="13.72" rerouteNo="0" devices="tripinfo_f_1_17.2 emissions_f_1_17.2" vType="DEFAULT_VEHTYPE" speedFactor="0.97" vaporized="">
        <emissions CO_abs="3585.106405" CO2_abs="318256.748390" HC_abs="23.530176" PMx_abs="4.903375" NOx_abs="123.837959" fuel_abs="101509.374290" electricity_abs="0"/>
    </tripinfo>
    <tripinfo id="f_1_20.5" depart="16.00" departLane="G2G3_0" departPos="5.10" departSpeed="0.00" departDelay="1.00" arrival="135.00" arrivalLane="G4G5_0" arrivalPos="492.80" arrivalSpeed="13.00" duration="119.00" routeLength="1494.90" waitingTime="0.00" waitingCount="0" stopTime="0.00" timeLoss="12.69" rerouteNo="0" devices="tripinfo_f_1_20.5 emissions_f_1_20.5" vType="DEFAULT_VEHTYPE" speedFactor="1.02" vaporized="">
        <emissions CO_abs="3136.164582" CO2_abs="314279.285726" HC_abs="20.938211" PMx_abs="4.468870" NOx_abs="118.438008" fuel_abs="100240.936731" electricity_abs="0"/>
    </tripinfo>
    <tripinfo id="f_1_15.2" depart="16.00" departLane="C6C5_0" departPos="5.10" departSpeed="0.00" departDelay="1.00" arrival="136.00" arrivalLane="C4C3_0" arrivalPos="491.30" arrivalSpeed="12.33" duration="120.00" routeLength="1493.50" waitingTime="0.00" waitingCount="0" stopTime="0.00" timeLoss="8.86" rerouteNo="0" devices="tripinfo_f_1_15.2 emissions_f_1_15.2" vType="DEFAULT_VEHTYPE" speedFactor="0.97" vaporized="">
        <emissions CO_abs="2660.645572" CO2_abs="296940.062082" HC_abs="18.646978" PMx_abs="3.938049" NOx_abs="110.245262" fuel_abs="94710.682140" electricity_abs="0"/>
    </tripinfo>
    <tripinfo id="f_0_9.2" depart="17.00" departLane="G9G8_0" departPos="5.10" departSpeed="0.00" departDelay="0.00" arrival="136.00" arrivalLane="G7G6_0" arrivalPos="492.80" arrivalSpeed="13.16" duration="119.00" routeLength="1494.90" waitingTime="0.00" waitingCount="0" stopTime="0.00" timeLoss="8.01" rerouteNo="0" devices="tripinfo_f_0_9.2 emissions_f_0_9.2" vType="DEFAULT_VEHTYPE" speedFactor="0.97" vaporized="">
        <emissions CO_abs="2465.062771" CO2_abs="291984.455119" HC_abs="17.331585" PMx_abs="3.701515" NOx_abs="106.896337" fuel_abs="93130.144156" electricity_abs="0"/>
    </tripinfo>
    <tripinfo id="f_1_14.4" depart="18.00" departLane="C2C3_0" departPos="5.10" departSpeed="0.00" departDelay="0.00" arrival="136.00" arrivalLane="C4C5_0" arrivalPos="492.80" arrivalSpeed="13.64" duration="118.00" routeLength="1494.90" waitingTime="0.00" waitingCount="0" stopTime="0.00" timeLoss="8.04" rerouteNo="0" devices="tripinfo_f_1_14.4 emissions_f_1_14.4" vType="DEFAULT_VEHTYPE" speedFactor="0.98" vaporized="">
        <emissions CO_abs="2344.421514" CO2_abs="288213.763928" HC_abs="16.462847" PMx_abs="3.570082" NOx_abs="104.404077" fuel_abs="91927.496836" electricity_abs="0"/>
    </tripinfo>
    <tripinfo id="f_1_17.3" depart="18.00" departLane="D6D5_0" departPos="5.10" departSpeed="0.00" departDelay="0.00" arrival="136.00" arrivalLane="D4D3_0" arrivalPos="491.30" arrivalSpeed="13.50" duration="118.00" routeLength="1493.50" waitingTime="0.00" waitingCount="0" stopTime="0.00" timeLoss="13.75" rerouteNo="0" devices="tripinfo_f_1_17.3 emissions_f_1_17.3" vType="DEFAULT_VEHTYPE" speedFactor="1.03" vaporized="">
        <emissions CO_abs="3080.659996" CO2_abs="319274.906302" HC_abs="20.655908" PMx_abs="4.435049" NOx_abs="119.454997" fuel_abs="101834.354992" electricity_abs="0"/>
    </tripinfo>
    <tripinfo id="f_0_3.0" depart="22.00" departLane="C9C8_0" departPos="5.10" departSpeed="0.00" departDelay="0.00" arrival="136.00" arrivalLane="C7C6_0" arrivalPos="492.80" arrivalSpeed="12.84" duration="114.00" routeLength="1494.90" waitingTime="0.00" waitingCount="0" stopTime="0.00" timeLoss="8.01" rerouteNo="0" devices="tripinfo_f_0_3.0 emissions_f_0_3.0" vType="DEFAULT_VEHTYPE" speedFactor="1.02" vaporized="">
        <emissions CO_abs="2572.916627" CO2_abs="285656.979887" HC_abs="17.627655" PMx_abs="3.899906" NOx_abs="105.954525" fuel_abs="91111.736856" electricity_abs="0"/>
    </tripinfo>
    <tripinfo id="f_1_20.6" depart="19.00" departLane="G2G3_0" departPos="5.10" departSpeed="0.00" departDelay="3.00" arrival="137.00" arrivalLane="G4G5_0" arrivalPos="492.80" arrivalSpeed="13.71" duration="118.00" routeLength="1494.90" waitingTime="0.00" waitingCount="0" stopTime="0.00" timeLoss="13.79" rerouteNo="0" devices="tripinfo_f_1_20.6 emissions_f_1_20.6" vType="DEFAULT_VEHTYPE" speedFactor="1.04" vaporized="">
        <emissions CO_abs="3411.041084" CO2_abs="326265.708691" HC_abs="22.548824" PMx_abs="4.892603" NOx_abs="124.784693" fuel_abs="104063.860858" electricity_abs="0"/>
    </tripinfo>
    <tripinfo id="f_1_14.5" depart="21.00" departLane="C2C3_0" departPos="5.10" departSpeed="0.00" departDelay="2.00" arrival="138.00" arrivalLane="C4C5_0" arrivalPos="492.80" arrivalSpeed="13.22" duration="117.00" routeLength="1494.90" waitingTime="0.00" waitingCount="0" stopTime="0.00" timeLoss="12.12" rerouteNo="0" devices="tripinfo_f_1_14.5 emissions_f_1_14.5" vType="DEFAULT_VEHTYPE" speedFactor="1.03" vaporized="">
        <emissions CO_abs="2642.537867" CO2_abs="291491.157841" HC_abs="18.175318" PMx_abs="3.989991" NOx_abs="108.670652" fuel_abs="92972.565819" electricity_abs="0"/>
    </tripinfo>
    <tripinfo id="f_1_17.4" depart="24.00" departLane="D6D5_0" departPos="5.10" departSpeed="0.00" departDelay="0.00" arrival="138.00" arrivalLane="D4D3_0" arrivalPos="491.30" arrivalSpeed="13.69" duration="114.00" routeLength="1493.50" waitingTime="0.00" waitingCount="0" stopTime="0.00" timeLoss="12.57" rerouteNo="0" devices="tripinfo_f_1_17.4 emissions_f_1_17.4" vType="DEFAULT_VEHTYPE" speedFactor="1.06" vaporized="">
        <emissions CO_abs="3114.976726" CO2_abs="317670.394261" HC_abs="20.828846" PMx_abs="4.643690" NOx_abs="120.025035" fuel_abs="101322.366882" electricity_abs="0"/>
    </tripinfo>
    <tripinfo id="f_1_21.1" depart="6.00" departLane="G6G5_0" departPos="5.10" departSpeed="0.00" departDelay="1.00" arrival="139.00" arrivalLane="G4G3_0" arrivalPos="491.30" arrivalSpeed="11.57" duration="133.00" routeLength="1493.50" waitingTime="0.00" waitingCount="0" stopTime="0.00" timeLoss="9.67" rerouteNo="0" devices="tripinfo_f_1_21.1 emissions_f_1_21.1" vType="DEFAULT_VEHTYPE" speedFactor="0.87" vaporized="">
        <emissions CO_abs="3217.086527" CO2_abs="295286.358054" HC_abs="21.269442" PMx_abs="3.963063" NOx_abs="111.255474" fuel_abs="94183.470483" electricity_abs="0"/>
    </tripinfo>
    <tripinfo id="f_1_22.0" depart="15.00" departLane="H2H3_0" departPos="5.10" departSpeed="0.00" departDelay="0.00" arrival="139.00" arrivalLane="H4H5_0" arrivalPos="492.80" arrivalSpeed="12.54" duration="124.00" routeLength="1494.90" waitingTime="0.00" waitingCount="0" stopTime="0.00" timeLoss="8.27" rerouteNo="0" devices="tripinfo_f_1_22.0 emissions_f_1_22.0" vType="DEFAULT_VEHTYPE" speedFactor="0.94" vaporized="">
        <emissions CO_abs="2679.612562" CO2_abs="283974.899638" HC_abs="18.379557" PMx_abs="3.803511" NOx_abs="106.104214" fuel_abs="90575.379893" electricity_abs="0"/>
    </tripinfo>
    <tripinfo id="f_1_20.7" depart="22.00" departLane="G2G3_0" departPos="5.10" departSpeed="0.00" departDelay="3.00" arrival="139.00" arrivalLane="G4G5_0" arrivalPos="492.80" arrivalSpeed="13.42" duration="117.00" routeLength="1494.90" waitingTime="0.00" waitingCount="0" stopTime="0.00" timeLoss="10.26" rerouteNo="0" devices="tripinfo_f_1_20.7 emissions_f_1_20.7" vType="DEFAULT_VEHTYPE" speedFactor="1.02" vaporized="">
        <emissions CO_abs="2798.016773" CO2_abs="308389.425021" HC_abs="19.275502" PMx_abs="4.238947" NOx_abs="115.168314" fuel_abs="98362.348066" electricity_abs="0"/>
    </tripinfo>
    <tripinfo id="f_0_9.3" depart="20.00" departLane="G9G8_0" departPos="5.10" departSpeed="0.00" departDelay="0.00" arrival="140.00" arrivalLane="G7G6_0" arrivalPos="492.80" arrivalSpeed="13.07" duration="120.00" routeLength="1494.90" waitingTime="0.00" waitingCount="0" stopTime="0.00" timeLoss="8.90" rerouteNo="0" devices="tripinfo_f_0_9.3 emissions_f_0_9.3" vType="DEFAULT_VEHTYPE" speedFactor="0.98" vaporized="">
        <emissions CO_abs="2508.997656" CO2_abs="305493.847288" HC_abs="17.877995" PMx_abs="3.815062" NOx_abs="111.518616" fuel_abs="97439.075880" electricity_abs="0"/>
    </tripinfo>
    <tripinfo id="f_1_22.1" depart="23.00" departLane="H2H3_0" departPos="5.10" departSpeed="0.00" departDelay="0.00" arrival="140.00" arrivalLane="H4H5_0" arrivalPos="492.80" arrivalSpeed="14.10" duration="117.00" routeLength="1494.90" waitingTime="0.00" waitingCount="0" stopTime="0.00" timeLoss="18.03" rerouteNo="0" devices="tripinfo_f_1_22.1 emissions_f_1_22.1" vType="DEFAULT_VEHTYPE" speedFactor="1.09" vaporized="">
        <emissions CO_abs="3487.364887" CO2_abs="329733.346765" HC_abs="23.051607" PMx_abs="5.055950" NOx_abs="126.948532" fuel_abs="105169.777957" electricity_abs="0"/>
    </tripinfo>
    <tripinfo id="f_1_21.2" depart="9.00" departLane="G6G5_0" departPos="5.10" departSpeed="0.00" departDelay="3.00" arrival="141.00" arrivalLane="G4G3_0" arrivalPos="491.30" arrivalSpeed="12.99" duration="132.00" routeLength="1493.50" waitingTime="0.00" waitingCount="0" stopTime="0.00" timeLoss="18.22" rerouteNo="0" devices="tripinfo_f_1_21.2 emissions_f_1_21.2" vType="DEFAULT_VEHTYPE" speedFactor="0.95" vaporized="">
        <emissions CO_abs="4231.333543" CO2_abs="343005.474625" HC_abs="27.078149" PMx_abs="5.385706" NOx_abs="134.945226" fuel_abs="109403.147492" electricity_abs="0"/>
    </tripinfo>
    <tripinfo id="f_1_21.3" depart="15.00" departLane="G6G5_0" departPos="5.10" departSpeed="0.00" departDelay="0.00" arrival="143.00" arrivalLane="G4G3_0" arrivalPos="491.30" arrivalSpeed="12.45" duration="128.00" routeLength="1493.50" waitingTime="0.00" waitingCount="0" stopTime="0.00" timeLoss="18.42" rerouteNo="0" devices="tripinfo_f_1_21.3 emissions_f_1_21.3" vType="DEFAULT_VEHTYPE" speedFactor="0.99" vaporized="">
        <emissions CO_abs="4053.507401" CO2_abs="351158.910952" HC_abs="26.277608" PMx_abs="5.354182" NOx_abs="136.304722" fuel_abs="112003.768853" electricity_abs="0"/>
    </tripinfo>
    <tripinfo id="f_0_7.0" depart="3.00" departLane="J7I7_0" departPos="5.10" departSpeed="0.00" departDelay="0.00" arrival="145.00" arrivalLane="G7F7_0" arrivalPos="492.80" arrivalSpeed="14.42" duration="142.00" routeLength="1994.90" waitingTime="0.00" waitingCount="0" stopTime="0.00" timeLoss="13.84" rerouteNo="0" devices="tripinfo_f_0_7.0 emissions_f_0_7.0" vType="DEFAULT_VEHTYPE" speedFactor="1.12" vaporized="">
        <emissions CO_abs="3871.178861" CO2_abs="422897.582932" HC_abs="26.283074" PMx_abs="6.222814" NOx_abs="158.516605" fuel_abs="134884.848808" electricity_abs="0"/>
    </tripinfo>
    <tripinfo id="f_1_21.4" depart="18.00" departLane="G6G5_0" departPos="5.10" departSpeed="0.00" departDelay="2.00" arrival="145.00" arrivalLane="G4G3_0" arrivalPos="491.30" arrivalSpeed="14.03" duration="127.00" routeLength="1493.50" waitingTime="0.00" waitingCount="0" stopTime="0.00" timeLoss="20.83" rerouteNo="0" devices="tripinfo_f_1_21.4 emissions_f_1_21.4" vType="DEFAULT_VEHTYPE" speedFactor="1.02" vaporized="">
        <emissions CO_abs="4013.974993" CO2_abs="349849.047606" HC_abs="25.973876" PMx_abs="5.334022" NOx_abs="135.758672" fuel_abs="111585.947189" electricity_abs="0"/>
    </tripinfo>
    <tripinfo id="f_0_8.1" depart="12.00" departLane="G5G6_0" departPos="5.10" departSpeed="0.00" departDelay="0.00" arrival="148.00" arrivalLane="G7G8_0" arrivalPos="491.30" arrivalSpeed="11.15" duration="136.00" routeLength="1493.50" waitingTime="0.00" waitingCount="0" stopTime="0.00" timeLoss="9.60" rerouteNo="0" devices="tripinfo_f_0_8.1 emissions_f_0_8.1" vType="DEFAULT_VEHTYPE" speedFactor="0.85" vaporized="">
        <emissions CO_abs="3044.109722" CO2_abs="299252.282818" HC_abs="20.543502" PMx_abs="3.641148" NOx_abs="110.224716" fuel_abs="95448.737564" electricity_abs="0"/>
    </tripinfo>
    <tripinfo id="f_0_7.1" depart="7.00" departLane="J7I7_0" departPos="5.10" departSpeed="0.00" departDelay="0.00" arrival="149.00" arrivalLane="G7F7_0" arrivalPos="492.80" arrivalSpeed="15.04" duration="142.00" routeLength="1994.90" waitingTime="0.00" waitingCount="0" stopTime="0.00" timeLoss="14.30" rerouteNo="0" devices="tripinfo_f_0_7.1 emissions_f_0_7.1" vType="DEFAULT_VEHTYPE" speedFactor="1.13" vaporized="">
        <emissions CO_abs="3835.193033" CO2_abs="425391.046621" HC_abs="25.808542" PMx_abs="6.098860" NOx_abs="157.861571" fuel_abs="135680.242498" electricity_abs="0"/>
    </tripinfo>
    <tripinfo id="f_0_8.2" depart="22.00" departLane="G5G6_0" departPos="5.10" departSpeed="0.00" departDelay="0.00" arrival="149.00" arrivalLane="G7G8_0" arrivalPos="491.30" arrivalSpeed="13.10" duration="127.00" routeLength="1493.50" waitingTime="0.00" waitingCount="0" stopTime="0.00" timeLoss="20.20" rerouteNo="0" devices="tripinfo_f_0_8.2 emissions_f_0_8.2" vType="DEFAULT_VEHTYPE" speedFactor="1.01" vaporized="">
        <emissions CO_abs="3515.016301" CO2_abs="314899.999411" HC_abs="22.850948" PMx_abs="4.598699" NOx_abs="120.569589" fuel_abs="100438.973314" electricity_abs="0"/>
    </tripinfo>
    <tripinfo id="f_0_6.0" depart="0.00" departLane="E7F7_0" departPos="5.10" departSpeed="0.00" departDelay="0.00" arrival="150.00" arrivalLane="H7I7_0" arrivalPos="491.30" arrivalSpeed="14.59" duration="150.00" routeLength="1993.50" waitingTime="0.00" waitingCount="0" stopTime="0.00" timeLoss="13.80" rerouteNo="0" devices="tripinfo_f_0_6.0 emissions_f_0_6.0" vType="DEFAULT_VEHTYPE" speedFactor="1.06" vaporized="">