<?xml version="1.0" encoding="UTF-8"?>

<!-- generated on 2024-08-22 13:34:53 by Eclipse SUMO sumo Version 1.17.0
<configuration xmlns:xsi="http://www.w3.org/2001/XMLSchema-instance" xsi:noNamespaceSchemaLocation="http://sumo.dlr.de/xsd/sumoConfiguration.xsd">

    <input>
        <net-file value="double_no_lights.net.xml"/>
        <route-files value="double_2.rou.xml"/>
    </input>

    <output>
        <tripinfo-output value="emissions_test\z_no_lights_2_emissions_tripinfo_double.xml"/>
    </output>

    <processing>
        <time-to-teleport value="-1"/>
    </processing>

    <emissions>
        <device.emissions.probability value="1.0"/>
    </emissions>

    <traci_server>
        <remote-port value="58195"/>
    </traci_server>

</configuration>
-->

<tripinfos xmlns:xsi="http://www.w3.org/2001/XMLSchema-instance" xsi:noNamespaceSchemaLocation="http://sumo.dlr.de/xsd/tripinfo_file.xsd">
    <tripinfo id="f_0_14.0" depart="3.00" departLane="C2C3_0" departPos="5.10" departSpeed="0.00" departDelay="0.00" arrival="107.00" arrivalLane="C4C5_0" arrivalPos="492.80" arrivalSpeed="15.47" duration="104.00" routeLength="1494.90" waitingTime="0.00" waitingCount="0" stopTime="0.00" timeLoss="7.48" rerouteNo="0" devices="tripinfo_f_0_14.0 emissions_f_0_14.0" vType="DEFAULT_VEHTYPE" speedFactor="1.12" vaporized="">
        <emissions CO_abs="2307.146594" CO2_abs="290742.480600" HC_abs="16.153843" PMx_abs="3.924031" NOx_abs="105.440326" fuel_abs="92733.654400" electricity_abs="0"/>
    </tripinfo>
    <tripinfo id="f_0_16.0" depart="0.00" departLane="D2D3_0" departPos="5.10" departSpeed="0.00" departDelay="0.00" arrival="108.00" arrivalLane="D4D5_0" arrivalPos="492.80" arrivalSpeed="14.88" duration="108.00" routeLength="1494.90" waitingTime="0.00" waitingCount="0" stopTime="0.00" timeLoss="8.24" rerouteNo="0" devices="tripinfo_f_0_16.0 emissions_f_0_16.0" vType="DEFAULT_VEHTYPE" speedFactor="1.08" vaporized="">
        <emissions CO_abs="2488.142424" CO2_abs="288074.731054" HC_abs="17.290425" PMx_abs="4.029908" NOx_abs="106.545462" fuel_abs="91882.756379" electricity_abs="0"/>
    </tripinfo>
    <tripinfo id="f_0_2.0" depart="0.00" departLane="C5C6_0" departPos="5.10" departSpeed="0.00" departDelay="0.00" arrival="109.00" arrivalLane="C7C8_0" arrivalPos="491.30" arrivalSpeed="13.67" duration="109.00" routeLength="1493.50" waitingTime="0.00" waitingCount="0" stopTime="0.00" timeLoss="7.16" rerouteNo="0" devices="tripinfo_f_0_2.0 emissions_f_0_2.0" vType="DEFAULT_VEHTYPE" speedFactor="1.06" vaporized="">
        <emissions CO_abs="2394.861367" CO2_abs="282635.005010" HC_abs="16.613238" PMx_abs="3.872544" NOx_abs="104.078949" fuel_abs="90147.760176" electricity_abs="0"/>
    </tripinfo>
    <tripinfo id="f_0_14.1" depart="10.00" departLane="C2C3_0" departPos="5.10" departSpeed="0.00" departDelay="0.00" arrival="109.00" arrivalLane="C4C5_0" arrivalPos="492.80" arrivalSpeed="16.17" duration="99.00" routeLength="1494.90" waitingTime="0.00" waitingCount="0" stopTime="0.00" timeLoss="7.10" rerouteNo="0" devices="tripinfo_f_0_14.1 emissions_f_0_14.1" vType="DEFAULT_VEHTYPE" speedFactor="1.17" vaporized="">
        <emissions CO_abs="2227.268884" CO2_abs="284120.172125" HC_abs="16.061181" PMx_abs="4.056067" NOx_abs="104.235978" fuel_abs="90621.281115" electricity_abs="0"/>
    </tripinfo>
    <tripinfo id="f_0_17.0" depart="1.00" departLane="D6D5_0" departPos="5.10" departSpeed="0.00" departDelay="0.00" arrival="112.00" arrivalLane="D4D3_0" arrivalPos="491.30" arrivalSpeed="14.14" duration="111.00" routeLength="1493.50" waitingTime="0.00" waitingCount="0" stopTime="0.00" timeLoss="7.29" rerouteNo="0" devices="tripinfo_f_0_17.0 emissions_f_0_17.0" vType="DEFAULT_VEHTYPE" speedFactor="1.05" vaporized="">
        <emissions CO_abs="2560.406184" CO2_abs="295911.922058" HC_abs="18.091771" PMx_abs="4.198812" NOx_abs="110.699552" fuel_abs="94382.408839" electricity_abs="0"/>
    </tripinfo>
    <tripinfo id="f_0_10.0" depart="0.00" departLane="H5H6_0" departPos="5.10" departSpeed="0.00" departDelay="0.00" arrival="115.00" arrivalLane="H7H8_0" arrivalPos="491.30" arrivalSpeed="12.84" duration="115.00" routeLength="1493.50" waitingTime="0.00" waitingCount="0" stopTime="0.00" timeLoss="8.39" rerouteNo="0" devices="tripinfo_f_0_10.0 emissions_f_0_10.0" vType="DEFAULT_VEHTYPE" speedFactor="1.01" vaporized="">
        <emissions CO_abs="2439.015012" CO2_abs="290265.912860" HC_abs="17.014324" PMx_abs="3.731404" NOx_abs="105.649837" fuel_abs="92581.951312" electricity_abs="0"/>
    </tripinfo>
    <tripinfo id="f_0_2.1" depart="3.00" departLane="C5C6_0" departPos="5.10" departSpeed="0.00" departDelay="2.00" arrival="116.00" arrivalLane="C7C8_0" arrivalPos="491.30" arrivalSpeed="14.29" duration="113.00" routeLength="1493.50" waitingTime="0.00" waitingCount="0" stopTime="0.00" timeLoss="8.64" rerouteNo="0" devices="tripinfo_f_0_2.1 emissions_f_0_2.1" vType="DEFAULT_VEHTYPE" speedFactor="1.03" vaporized="">
        <emissions CO_abs="2325.401677" CO2_abs="290659.673666" HC_abs="16.636035" PMx_abs="3.741892" NOx_abs="106.261976" fuel_abs="92707.466555" electricity_abs="0"/>
    </tripinfo>
    <tripinfo id="f_0_9.0" depart="3.00" departLane="G9G8_0" departPos="5.10" departSpeed="0.00" departDelay="0.00" arrival="116.00" arrivalLane="G7G6_0" arrivalPos="492.80" arrivalSpeed="13.17" duration="113.00" routeLength="1494.90" waitingTime="0.00" waitingCount="0" stopTime="0.00" timeLoss="7.68" rerouteNo="0" devices="tripinfo_f_0_9.0 emissions_f_0_9.0" vType="DEFAULT_VEHTYPE" speedFactor="1.03" vaporized="">
        <emissions CO_abs="2110.447800" CO2_abs="277014.570919" HC_abs="15.429102" PMx_abs="3.543733" NOx_abs="100.726183" fuel_abs="88355.284073" electricity_abs="0"/>
    </tripinfo>
    <tripinfo id="f_0_10.1" depart="9.00" departLane="H5H6_0" departPos="5.10" departSpeed="0.00" departDelay="0.00" arrival="117.00" arrivalLane="H7H8_0" arrivalPos="491.30" arrivalSpeed="15.87" duration="108.00" routeLength="1493.50" waitingTime="0.00" waitingCount="0" stopTime="0.00" timeLoss="16.02" rerouteNo="0" devices="tripinfo_f_0_10.1 emissions_f_0_10.1" vType="DEFAULT_VEHTYPE" speedFactor="1.18" vaporized="">
        <emissions CO_abs="3242.747599" CO2_abs="323636.818321" HC_abs="21.875170" PMx_abs="5.069252" NOx_abs="124.292361" fuel_abs="103225.091419" electricity_abs="0"/>
    </tripinfo>
    <tripinfo id="f_0_14.2" depart="13.00" departLane="C2C3_0" departPos="5.10" departSpeed="0.00" departDelay="1.00" arrival="119.00" arrivalLane="C4C5_0" arrivalPos="492.80" arrivalSpeed="13.87" duration="106.00" routeLength="1494.90" waitingTime="0.00" waitingCount="0" stopTime="0.00" timeLoss="7.08" rerouteNo="0" devices="tripinfo_f_0_14.2 emissions_f_0_14.2" vType="DEFAULT_VEHTYPE" speedFactor="1.09" vaporized="">
        <emissions CO_abs="2101.194973" CO2_abs="287468.287281" HC_abs="14.780395" PMx_abs="3.588084" NOx_abs="101.969573" fuel_abs="91689.533032" electricity_abs="0"/>
    </tripinfo>
    <tripinfo id="f_0_16.1" depart="3.00" departLane="D2D3_0" departPos="5.10" departSpeed="0.00" departDelay="0.00" arrival="120.00" arrivalLane="D4D5_0" arrivalPos="492.80" arrivalSpeed="12.85" duration="117.00" routeLength="1494.90" waitingTime="0.00" waitingCount="0" stopTime="0.00" timeLoss="7.79" rerouteNo="0" devices="tripinfo_f_0_16.1 emissions_f_0_16.1" vType="DEFAULT_VEHTYPE" speedFactor="0.99" vaporized="">
        <emissions CO_abs="2438.558254" CO2_abs="285335.483318" HC_abs="17.128258" PMx_abs="3.754543" NOx_abs="105.083266" fuel_abs="91009.291223" electricity_abs="0"/>
    </tripinfo>
    <tripinfo id="f_0_9.1" depart="6.00" departLane="G9G8_0" departPos="5.10" departSpeed="0.00" departDelay="0.00" arrival="121.00" arrivalLane="G7G6_0" arrivalPos="492.80" arrivalSpeed="13.47" duration="115.00" routeLength="1494.90" waitingTime="0.00" waitingCount="0" stopTime="0.00" timeLoss="7.74" rerouteNo="0" devices="tripinfo_f_0_9.1 emissions_f_0_9.1" vType="DEFAULT_VEHTYPE" speedFactor="1.01" vaporized="">
        <emissions CO_abs="2548.402729" CO2_abs="301655.019965" HC_abs="17.765049" PMx_abs="3.979986" NOx_abs="110.796496" fuel_abs="96214.459983" electricity_abs="0"/>
    </tripinfo>
    <tripinfo id="f_0_5.0" depart="0.00" departLane="D9D8_0" departPos="5.10" departSpeed="0.00" departDelay="0.00" arrival="124.00" arrivalLane="D7D6_0" arrivalPos="492.80" arrivalSpeed="12.06" duration="124.00" routeLength="1494.90" waitingTime="0.00" waitingCount="0" stopTime="0.00" timeLoss="8.93" rerouteNo="0" devices="tripinfo_f_0_5.0 emissions_f_0_5.0" vType="DEFAULT_VEHTYPE" speedFactor="0.94" vaporized="">
        <emissions CO_abs="2606.563422" CO2_abs="296702.001225" HC_abs="17.957946" PMx_abs="3.630409" NOx_abs="107.688053" fuel_abs="94635.072001" electricity_abs="0"/>
    </tripinfo>
    <tripinfo id="f_0_3.0" depart="11.00" departLane="C9C8_0" departPos="5.10" departSpeed="0.00" departDelay="0.00" arrival="125.00" arrivalLane="C7C6_0" arrivalPos="492.80" arrivalSpeed="13.13" duration="114.00" routeLength="1494.90" waitingTime="0.00" waitingCount="0" stopTime="0.00" timeLoss="7.76" rerouteNo="0" devices="tripinfo_f_0_3.0 emissions_f_0_3.0" vType="DEFAULT_VEHTYPE" speedFactor="1.02" vaporized="">
        <emissions CO_abs="2498.947867" CO2_abs="292814.119111" HC_abs="17.330062" PMx_abs="3.869381" NOx_abs="107.243026" fuel_abs="93394.620223" electricity_abs="0"/>
    </tripinfo>
    <tripinfo id="f_0_5.1" depart="4.00" departLane="D9D8_0" departPos="5.10" departSpeed="0.00" departDelay="0.00" arrival="127.00" arrivalLane="D7D6_0" arrivalPos="492.80" arrivalSpeed="12.82" duration="123.00" routeLength="1494.90" waitingTime="0.00" waitingCount="0" stopTime="0.00" timeLoss="8.56" rerouteNo="0" devices="tripinfo_f_0_5.1 emissions_f_0_5.1" vType="DEFAULT_VEHTYPE" speedFactor="0.94" vaporized="">
        <emissions CO_abs="2479.853673" CO2_abs="294021.159760" HC_abs="17.433397" PMx_abs="3.525362" NOx_abs="106.288952" fuel_abs="93780.019081" electricity_abs="0"/>
    </tripinfo>
    <tripinfo id="f_0_2.2" depart="6.00" departLane="C5C6_0" departPos="5.10" departSpeed="0.00" departDelay="1.00" arrival="130.00" arrivalLane="C7C8_0" arrivalPos="491.30" arrivalSpeed="11.82" duration="124.00" routeLength="1493.50" waitingTime="0.00" waitingCount="0" stopTime="0.00" timeLoss="8.75" rerouteNo="0" devices="tripinfo_f_0_2.2 emissions_f_0_2.2" vType="DEFAULT_VEHTYPE" speedFactor="0.94" vaporized="">
        <emissions CO_abs="2407.690210" CO2_abs="279908.899687" HC_abs="16.803235" PMx_abs="3.364106" NOx_abs="101.580983" fuel_abs="89278.809163" electricity_abs="0"/>
    </tripinfo>
    <tripinfo id="f_0_5.2" depart="11.00" departLane="D9D8_0" departPos="5.10" departSpeed="0.00" departDelay="0.00" arrival="130.00" arrivalLane="D7D6_0" arrivalPos="492.80" arrivalSpeed="13.24" duration="119.00" routeLength="1494.90" waitingTime="0.00" waitingCount="0" stopTime="0.00" timeLoss="8.33" rerouteNo="0" devices="tripinfo_f_0_5.2 emissions_f_0_5.2" vType="DEFAULT_VEHTYPE" speedFactor="0.97" vaporized="">
        <emissions CO_abs="2364.476539" CO2_abs="287888.534557" HC_abs="16.847731" PMx_abs="3.569123" NOx_abs="104.722137" fuel_abs="91823.803281" electricity_abs="0"/>
    </tripinfo>
    <tripinfo id="f_0_10.2" depart="13.00" departLane="H5H6_0" departPos="5.10" departSpeed="0.00" departDelay="0.00" arrival="130.00" arrivalLane="H7H8_0" arrivalPos="491.30" arrivalSpeed="13.15" duration="117.00" routeLength="1493.50" waitingTime="0.00" waitingCount="0" stopTime="0.00" timeLoss="8.51" rerouteNo="0" devices="tripinfo_f_0_10.2 emissions_f_0_10.2" vType="DEFAULT_VEHTYPE" speedFactor="1.00" vaporized="">
        <emissions CO_abs="2441.988038" CO2_abs="287841.829331" HC_abs="17.054884" PMx_abs="3.687305" NOx_abs="105.295344" fuel_abs="91808.792995" electricity_abs="0"/>
    </tripinfo>
    <tripinfo id="f_0_10.3" depart="16.00" departLane="H5H6_0" departPos="5.10" departSpeed="0.00" departDelay="1.00" arrival="131.00" arrivalLane="H7H8_0" arrivalPos="491.30" arrivalSpeed="14.75" duration="115.00" routeLength="1493.50" waitingTime="0.00" waitingCount="0" stopTime="0.00" timeLoss="16.80" rerouteNo="0" devices="tripinfo_f_0_10.3 emissions_f_0_10.3" vType="DEFAULT_VEHTYPE" speedFactor="1.10" vaporized="">
        <emissions CO_abs="3085.889097" CO2_abs="312711.846136" HC_abs="20.691313" PMx_abs="4.595643" NOx_abs="118.847398" fuel_abs="99740.802195" electricity_abs="0"/>
    </tripinfo>
    <tripinfo id="f_0_9.2" depart="9.00" departLane="G9G8_0" departPos="5.10" departSpeed="0.00" departDelay="1.00" arrival="132.00" arrivalLane="G7G6_0" arrivalPos="492.80" arrivalSpeed="11.97" duration="123.00" routeLength="1494.90" waitingTime="0.00" waitingCount="0" stopTime="0.00" timeLoss="9.28" rerouteNo="0" devices="tripinfo_f_0_9.2 emissions_f_0_9.2" vType="DEFAULT_VEHTYPE" speedFactor="0.95" vaporized="">
        <emissions CO_abs="2734.874666" CO2_abs="286588.483063" HC_abs="18.488769" PMx_abs="3.770197" NOx_abs="106.342598" fuel_abs="91409.086790" electricity_abs="0"/>
    </tripinfo>
    <tripinfo id="f_0_14.3" depart="16.00" departLane="C2C3_0" departPos="5.10" departSpeed="0.00" departDelay="1.00" arrival="132.00" arrivalLane="C4C5_0" arrivalPos="492.80" arrivalSpeed="13.74" duration="116.00" routeLength="1494.90" waitingTime="0.00" waitingCount="0" stopTime="0.00" timeLoss="7.92" rerouteNo="0" devices="tripinfo_f_0_14.3 emissions_f_0_14.3" vType="DEFAULT_VEHTYPE" speedFactor="1.00" vaporized="">
        <emissions CO_abs="2267.361438" CO2_abs="274898.056354" HC_abs="16.098418" PMx_abs="3.550404" NOx_abs="100.754957" fuel_abs="87680.241119" electricity_abs="0"/>
    </tripinfo>
    <tripinfo id="f_0_8.0" depart="2.00" departLane="G5G6_0" departPos="5.10" departSpeed="0.00" departDelay="0.00" arrival="133.00" arrivalLane="G7G8_0" arrivalPos="491.30" arrivalSpeed="11.25" duration="131.00" routeLength="1493.50" waitingTime="0.00" waitingCount="0" stopTime="0.00" timeLoss="8.74" rerouteNo="0" devices="tripinfo_f_0_8.0 emissions_f_0_8.0" vType="DEFAULT_VEHTYPE" speedFactor="0.89" vaporized="">
        <emissions CO_abs="2788.039667" CO2_abs="289539.647796" HC_abs="19.146530" PMx_abs="3.614193" NOx_abs="106.991934" fuel_abs="92350.618878" electricity_abs="0"/>
    </tripinfo>
    <tripinfo id="f_0_16.2" depart="8.00" departLane="D2D3_0" departPos="5.10" departSpeed="0.00" departDelay="0.00" arrival="133.00" arrivalLane="D4D5_0" arrivalPos="492.80" arrivalSpeed="12.41" duration="125.00" routeLength="1494.90" waitingTime="0.00" waitingCount="0" stopTime="0.00" timeLoss="8.95" rerouteNo="0" devices="tripinfo_f_0_16.2 emissions_f_0_16.2" vType="DEFAULT_VEHTYPE" speedFactor="0.93" vaporized="">
        <emissions CO_abs="2707.881043" CO2_abs="300995.542992" HC_abs="18.953508" PMx_abs="3.801499" NOx_abs="110.937719" fuel_abs="96004.402537" electricity_abs="0"/>
    </tripinfo>
    <tripinfo id="f_0_15.0" depart="16.00" departLane="C6C5_0" departPos="5.10" departSpeed="0.00" departDelay="0.00" arrival="133.00" arrivalLane="C4C3_0" arrivalPos="491.30" arrivalSpeed="13.71" duration="117.00" routeLength="1493.50" waitingTime="0.00" waitingCount="0" stopTime="0.00" timeLoss="8.20" rerouteNo="0" devices="tripinfo_f_0_15.0 emissions_f_0_15.0" vType="DEFAULT_VEHTYPE" speedFactor="1.00" vaporized="">
        <emissions CO_abs="2575.205294" CO2_abs="290313.952067" HC_abs="17.762561" PMx_abs="3.881179" NOx_abs="107.480503" fuel_abs="92597.167503" electricity_abs="0"/>
    </tripinfo>
    <tripinfo id="f_0_10.4" depart="19.00" departLane="H5H6_0" departPos="5.10" departSpeed="0.00" departDelay="2.00" arrival="133.00" arrivalLane="H7H8_0" arrivalPos="491.30" arrivalSpeed="13.87" duration="114.00" routeLength="1493.50" waitingTime="0.00" waitingCount="0" stopTime="0.00" timeLoss="14.34" rerouteNo="0" devices="tripinfo_f_0_10.4 emissions_f_0_10.4" vType="DEFAULT_VEHTYPE" speedFactor="1.08" vaporized="">
        <emissions CO_abs="3157.866725" CO2_abs="318947.024655" HC_abs="21.026938" PMx_abs="4.678321" NOx_abs="120.726194" fuel_abs="101729.547412" electricity_abs="0"/>
    </tripinfo>
    <tripinfo id="f_0_8.1" depart="4.00" departLane="G5G6_0" departPos="5.10" departSpeed="0.00" departDelay="1.00" arrival="134.00" arrivalLane="G7G8_0" arrivalPos="491.30" arrivalSpeed="12.62" duration="130.00" routeLength="1493.50" waitingTime="0.00" waitingCount="0" stopTime="0.00" timeLoss="31.24" rerouteNo="0" devices="tripinfo_f_0_8.1 emissions_f_0_8.1" vType="DEFAULT_VEHTYPE" speedFactor="1.09" vaporized="">
        <emissions CO_abs="3995.755121" CO2_abs="338057.026916" HC_abs="25.852930" PMx_abs="5.116223" NOx_abs="131.403926" fuel_abs="107824.948959" electricity_abs="0"/>
    </tripinfo>
    <tripinfo id="f_0_9.3" depart="12.00" departLane="G9G8_0" departPos="5.10" departSpeed="0.00" departDelay="1.00" arrival="134.00" arrivalLane="G7G6_0" arrivalPos="492.80" arrivalSpeed="15.23" duration="122.00" routeLength="1494.90" waitingTime="0.00" waitingCount="0" stopTime="0.00" timeLoss="30.05" rerouteNo="0" devices="tripinfo_f_0_9.3 emissions_f_0_9.3" vType="DEFAULT_VEHTYPE" speedFactor="1.18" vaporized="">
        <emissions CO_abs="3485.746668" CO2_abs="326968.330951" HC_abs="23.003949" PMx_abs="4.859046" NOx_abs="125.308236" fuel_abs="104288.066130" electricity_abs="0"/>
    </tripinfo>
    <tripinfo id="f_0_15.1" depart="20.00" departLane="C6C5_0" departPos="5.10" departSpeed="0.00" departDelay="0.00" arrival="134.00" arrivalLane="C4C3_0" arrivalPos="491.30" arrivalSpeed="13.98" duration="114.00" routeLength="1493.50" waitingTime="0.00" waitingCount="0" stopTime="0.00" timeLoss="11.96" rerouteNo="0" devices="tripinfo_f_0_15.1 emissions_f_0_15.1" vType="DEFAULT_VEHTYPE" speedFactor="1.06" vaporized="">
        <emissions CO_abs="3009.613113" CO2_abs="302950.748706" HC_abs="20.259607" PMx_abs="4.483863" NOx_abs="115.226543" fuel_abs="96627.449880" electricity_abs="0"/>
    </tripinfo>
    <tripinfo id="f_0_16.3" depart="11.00" departLane="D2D3_0" departPos="5.10" departSpeed="0.00" departDelay="1.00" arrival="135.00" arrivalLane="D4D5_0" arrivalPos="492.80" arrivalSpeed="13.60" duration="124.00" routeLength="1494.90" waitingTime="0.00" waitingCount="0" stopTime="0.00" timeLoss="14.98" rerouteNo="0" devices="tripinfo_f_0_16.3 emissions_f_0_16.3" vType="DEFAULT_VEHTYPE" speedFactor="0.99" vaporized="">
        <emissions CO_abs="3304.315780" CO2_abs="318631.221651" HC_abs="22.137724" PMx_abs="4.644371" NOx_abs="121.966990" fuel_abs="101628.938883" electricity_abs="0"/>
    </tripinfo>
    <tripinfo id="f_0_5.3" depart="14.00" departLane="D9D8_0" departPos="5.10" departSpeed="0.00" departDelay="2.00" arrival="135.00" arrivalLane="D7D6_0" arrivalPos="492.80" arrivalSpeed="12.92" duration="121.00" routeLength="1494.90" waitingTime="0.00" waitingCount="0" stopTime="0.00" timeLoss="8.28" rerouteNo="0" devices="tripinfo_f_0_5.3 emissions_f_0_5.3" vType="DEFAULT_VEHTYPE" speedFactor="0.96" vaporized="">
        <emissions CO_abs="2603.783430" CO2_abs="297040.113393" HC_abs="18.098869" PMx_abs="3.742258" NOx_abs="108.685129" fuel_abs="94742.764266" electricity_abs="0"/>
    </tripinfo>
    <tripinfo id="f_0_9.4" depart="15.00" departLane="G9G8_0" departPos="5.10" departSpeed="0.00" departDelay="2.00" arrival="135.00" arrivalLane="G7G6_0" arrivalPos="492.80" arrivalSpeed="15.05" duration="120.00" routeLength="1494.90" waitingTime="0.00" waitingCount="0" stopTime="0.00" timeLoss="20.99" rerouteNo="0" devices="tripinfo_f_0_9.4 emissions_f_0_9.4" vType="DEFAULT_VEHTYPE" speedFactor="1.09" vaporized="">
        <emissions CO_abs="3755.905056" CO2_abs="332037.674358" HC_abs="24.435014" PMx_abs="5.219984" NOx_abs="129.201441" fuel_abs="105904.753606" electricity_abs="0"/>
    </tripinfo>
    <tripinfo id="f_0_16.4" depart="14.00" departLane="D2D3_0" departPos="5.10" departSpeed="0.00" departDelay="2.00" arrival="136.00" arrivalLane="D4D5_0" arrivalPos="492.80" arrivalSpeed="13.31" duration="122.00" routeLength="1494.90" waitingTime="0.00" waitingCount="0" stopTime="0.00" timeLoss="18.17" rerouteNo="0" devices="tripinfo_f_0_16.4 emissions_f_0_16.4" vType="DEFAULT_VEHTYPE" speedFactor="1.04" vaporized="">
        <emissions CO_abs="3470.782871" CO2_abs="332541.320122" HC_abs="23.343173" PMx_abs="4.945315" NOx_abs="127.955623" fuel_abs="106065.549277" electricity_abs="0"/>
    </tripinfo>
    <tripinfo id="f_0_8.2" depart="17.00" departLane="G5G6_0" departPos="5.10" departSpeed="0.00" departDelay="0.00" arrival="136.00" arrivalLane="G7G8_0" arrivalPos="491.30" arrivalSpeed="13.79" duration="119.00" routeLength="1493.50" waitingTime="0.00" waitingCount="0" stopTime="0.00" timeLoss="13.39" rerouteNo="0" devices="tripinfo_f_0_8.2 emissions_f_0_8.2" vType="DEFAULT_VEHTYPE" speedFactor="1.02" vaporized="">
        <emissions CO_abs="3403.590682" CO2_abs="323332.739217" HC_abs="22.726095" PMx_abs="4.898000" NOx_abs="124.463570" fuel_abs="103128.355171" electricity_abs="0"/>
    </tripinfo>
    <tripinfo id="f_1_15.0" depart="25.00" departLane="C6C5_0" departPos="5.10" departSpeed="0.00" departDelay="0.00" arrival="136.00" arrivalLane="C4C3_0" arrivalPos="491.30" arrivalSpeed="14.65" duration="111.00" routeLength="1493.50" waitingTime="0.00" waitingCount="0" stopTime="0.00" timeLoss="16.84" rerouteNo="0" devices="tripinfo_f_1_15.0 emissions_f_1_15.0" vType="DEFAULT_VEHTYPE" speedFactor="1.15" vaporized="">
        <emissions CO_abs="3397.200669" CO2_abs="340730.530385" HC_abs="22.809631" PMx_abs="5.192770" NOx_abs="130.202011" fuel_abs="108677.301967" electricity_abs="0"/>
    </tripinfo>
    <tripinfo id="f_0_5.4" depart="17.00" departLane="D9D8_0" departPos="5.10" departSpeed="0.00" departDelay="0.00" arrival="137.00" arrivalLane="D7D6_0" arrivalPos="492.80" arrivalSpeed="15.25" duration="120.00" routeLength="1494.90" waitingTime="0.00" waitingCount="0" stopTime="0.00" timeLoss="25.07" rerouteNo="0" devices="tripinfo_f_0_5.4 emissions_f_0_5.4" vType="DEFAULT_VEHTYPE" speedFactor="1.14" vaporized="">
        <emissions CO_abs="3615.083702" CO2_abs="333134.375695" HC_abs="23.864956" PMx_abs="5.109144" NOx_abs="128.571506" fuel_abs="106254.635736" electricity_abs="0"/>
    </tripinfo>
    <tripinfo id="f_0_4.0" depart="3.00" departLane="D5D6_0" departPos="5.10" departSpeed="0.00" departDelay="0.00" arrival="139.00" arrivalLane="D7D8_0" arrivalPos="491.30" arrivalSpeed="11.46" duration="136.00" routeLength="1493.50" waitingTime="0.00" waitingCount="0" stopTime="0.00" timeLoss="10.20" rerouteNo="0" devices="tripinfo_f_0_4.0 emissions_f_0_4.0" vType="DEFAULT_VEHTYPE" speedFactor="0.86" vaporized="">
        <emissions CO_abs="3020.322472" CO2_abs="286159.794974" HC_abs="20.144453" PMx_abs="3.504489" NOx_abs="105.586865" fuel_abs="91272.827983" electricity_abs="0"/>
    </tripinfo>
    <tripinfo id="f_0_17.1" depart="7.00" departLane="D6D5_0" departPos="5.10" departSpeed="0.00" departDelay="0.00" arrival="139.00" arrivalLane="D4D3_0" arrivalPos="491.30" arrivalSpeed="11.94" duration="132.00" routeLength="1493.50" waitingTime="0.00" waitingCount="0" stopTime="0.00" timeLoss="8.68" rerouteNo="0" devices="tripinfo_f_0_17.1 emissions_f_0_17.1" vType="DEFAULT_VEHTYPE" speedFactor="0.87" vaporized="">
        <emissions CO_abs="2870.130003" CO2_abs="299813.228826" HC_abs="19.838047" PMx_abs="3.616039" NOx_abs="110.180901" fuel_abs="95627.566913" electricity_abs="0"/>
    </tripinfo>
    <tripinfo id="f_0_9.5" depart="18.00" departLane="G9G8_0" departPos="5.10" departSpeed="0.00" departDelay="1.00" arrival="139.00" arrivalLane="G7G6_0" arrivalPos="492.80" arrivalSpeed="12.76" duration="121.00" routeLength="1494.90" waitingTime="0.00" waitingCount="0" stopTime="0.00" timeLoss="9.09" rerouteNo="0" devices="tripinfo_f_0_9.5 emissions_f_0_9.5" vType="DEFAULT_VEHTYPE" speedFactor="0.97" vaporized="">
        <emissions CO_abs="2679.261100" CO2_abs="294284.645193" HC_abs="18.542201" PMx_abs="3.890378" NOx_abs="109.104334" fuel_abs="93863.753800" electricity_abs="0"/>
    </tripinfo>
    <tripinfo id="f_0_9.6" depart="21.00" departLane="G9G8_0" departPos="5.10" departSpeed="0.00" departDelay="1.00" arrival="140.00" arrivalLane="G7G6_0" arrivalPos="492.80" arrivalSpeed="13.45" duration="119.00" routeLength="1494.90" waitingTime="0.00" waitingCount="0" stopTime="0.00" timeLoss="13.45" rerouteNo="0" devices="tripinfo_f_0_9.6 emissions_f_0_9.6" vType="DEFAULT_VEHTYPE" speedFactor="1.02" vaporized="">
        <emissions CO_abs="3074.923878" CO2_abs="305175.276461" HC_abs="20.680772" PMx_abs="4.424040" NOx_abs="116.060678" fuel_abs="97337.089007" electricity_abs="0"/>
    </tripinfo>
    <tripinfo id="f_0_4.1" depart="6.00" departLane="D5D6_0" departPos="5.10" departSpeed="0.00" departDelay="2.00" arrival="141.00" arrivalLane="D7D8_0" arrivalPos="491.30" arrivalSpeed="11.58" duration="135.00" routeLength="1493.50" waitingTime="0.00" waitingCount="0" stopTime="0.00" timeLoss="12.04" rerouteNo="0" devices="tripinfo_f_0_4.1 emissions_f_0_4.1" vType="DEFAULT_VEHTYPE" speedFactor="0.88" vaporized="">
        <emissions CO_abs="3821.669396" CO2_abs="331724.465399" HC_abs="24.933972" PMx_abs="4.676911" NOx_abs="126.883515" fuel_abs="105805.475233" electricity_abs="0"/>
    </tripinfo>
    <tripinfo id="f_0_4.2" depart="9.00" departLane="D5D6_0" departPos="5.10" departSpeed="0.00" departDelay="4.00" arrival="143.00" arrivalLane="D7D8_0" arrivalPos="491.30" arrivalSpeed="15.50" duration="134.00" routeLength="1493.50" waitingTime="0.00" waitingCount="0" stopTime="0.00" timeLoss="40.32" rerouteNo="0" devices="tripinfo_f_0_4.2 emissions_f_0_4.2" vType="DEFAULT_VEHTYPE" speedFactor="1.16" vaporized="">
        <emissions CO_abs="4798.615291" CO2_abs="376228.243926" HC_abs="30.513865" PMx_abs="6.082048" NOx_abs="149.394474" fuel_abs="119999.595825" electricity_abs="0"/>
    </tripinfo>
    <tripinfo id="f_0_4.3" depart="12.00" departLane="D5D6_0" departPos="5.10" departSpeed="0.00" departDelay="4.00" arrival="145.00" arrivalLane="D7D8_0" arrivalPos="491.30" arrivalSpeed="12.53" duration="133.00" routeLength="1493.50" waitingTime="0.00" waitingCount="0" stopTime="0.00" timeLoss="14.84" rerouteNo="0" devices="tripinfo_f_0_4.3 emissions_f_0_4.3" vType="DEFAULT_VEHTYPE" speedFactor="0.92" vaporized="">
        <emissions CO_abs="4439.208128" CO2_abs="345867.890581" HC_abs="28.074577" PMx_abs="5.608697" NOx_abs="137.366412" fuel_abs="110316.023967" electricity_abs="0"/>
    </tripinfo>
    <tripinfo id="f_0_4.4" depart="15.00" departLane="D5D6_0" departPos="5.10" departSpeed="0.00" departDelay="5.00" arrival="146.00" arrivalLane="D7D8_0" arrivalPos="491.30" arrivalSpeed="13.83" duration="131.00" routeLength="1493.50" waitingTime="0.00" waitingCount="0" stopTime="0.00" timeLoss="23.79" rerouteNo="0" devices="tripinfo_f_0_4.4 emissions_f_0_4.4" vType="DEFAULT_VEHTYPE" speedFactor="1.01" vaporized="">
        <emissions CO_abs="4858.326521" CO2_abs="374177.682316" HC_abs="30.675046" PMx_abs="6.169656" NOx_abs="149.181803" fuel_abs="119345.475265" electricity_abs="0"/>
    </tripinfo>
    <tripinfo id="f_0_2.3" depart="17.00" departLane="C5C6_0" departPos="5.10" departSpeed="0.00" departDelay="0.00" arrival="146.00" arrivalLane="C7C8_0" arrivalPos="491.30" arrivalSpeed="11.84" duration="129.00" routeLength="1493.50" waitingTime="0.00" waitingCount="0" stopTime="0.00" timeLoss="9.04" rerouteNo="0" devices="tripinfo_f_0_2.3 emissions_f_0_2.3" vType="DEFAULT_VEHTYPE" speedFactor="0.90" vaporized="">
        <emissions CO_abs="2641.016375" CO2_abs="295441.020075" HC_abs="18.361382" PMx_abs="3.440866" NOx_abs="106.849027" fuel_abs="94233.095869" electricity_abs="0"/>
    </tripinfo>
    <tripinfo id="f_0_11.0" depart="7.00" departLane="H9H8_0" departPos="5.10" departSpeed="0.00" departDelay="0.00" arrival="148.00" arrivalLane="H7H6_0" arrivalPos="492.80" arrivalSpeed="10.58" duration="141.00" routeLength="1494.90" waitingTime="0.00" waitingCount="0" stopTime="0.00" timeLoss="10.66" rerouteNo="0" devices="tripinfo_f_0_11.0 emissions_f_0_11.0" vType="DEFAULT_VEHTYPE" speedFactor="0.83" vaporized="">
        <emissions CO_abs="3470.565243" CO2_abs="303600.515370" HC_abs="22.666907" PMx_abs="3.823677" NOx_abs="113.319252" fuel_abs="96835.682747" electricity_abs="0"/>
    </tripinfo>
    <tripinfo id="f_0_4.5" depart="18.00" departLane="D5D6_0" departPos="5.10" departSpeed="0.00" departDelay="3.00" arrival="148.00" arrivalLane="D7D8_0" arrivalPos="491.30" arrivalSpeed="13.94" duration="130.00" routeLength="1493.50" waitingTime="0.00" waitingCount="0" stopTime="0.00" timeLoss="23.71" rerouteNo="0" devices="tripinfo_f_0_4.5 emissions_f_0_4.5" vType="DEFAULT_VEHTYPE" speedFactor="1.02" vaporized="">
        <emissions CO_abs="4948.395086" CO2_abs="395880.223801" HC_abs="31.301741" PMx_abs="6.354653" NOx_abs="156.107151" fuel_abs="126267.657460" electricity_abs="0"/>
    </tripinfo>
    <tripinfo id="f_0_11.1" depart="11.00" departLane="H9H8_0" departPos="5.10" departSpeed="0.00" departDelay="0.00" arrival="150.00" arrivalLane="H7H6_0" arrivalPos="492.80" arrivalSpeed="14.26" duration="139.00" routeLength="1494.90" waitingTime="0.00" waitingCount="0" stopTime="0.00" timeLoss="40.90" rerouteNo="0" devices="tripinfo_f_0_11.1 emissions_f_0_11.1" vType="DEFAULT_VEHTYPE" speedFactor="1.10" vaporized="">
        <emissions CO_abs="4267.635432" CO2_abs="340712.217585" HC_abs="27.192350" PMx_abs="5.068004" NOx_abs="132.396339" fuel_abs="108672.073282" electricity_abs="0"/>
    </tripinfo>
    <tripinfo id="f_0_11.2" depart="14.00" departLane="H9H8_0" departPos="5.10" departSpeed="0.00" departDelay="1.00" arrival="152.00" arrivalLane="H7H6_0" arrivalPos="492.80" arrivalSpeed="11.76" duration="138.00" routeLength="1494.90" waitingTime="0.00" waitingCount="0" stopTime="0.00" timeLoss="18.02" rerouteNo="0" devices="tripinfo_f_0_11.2 emissions_f_0_11.2" vType="DEFAULT_VEHTYPE" speedFactor="0.90" vaporized="">