<?xml version="1.0" encoding="UTF-8"?>

<!-- generated on 2024-08-22 13:34:52 by Eclipse SUMO sumo Version 1.17.0
<configuration xmlns:xsi="http://www.w3.org/2001/XMLSchema-instance" xsi:noNamespaceSchemaLocation="http://sumo.dlr.de/xsd/sumoConfiguration.xsd">

    <input>
        <net-file value="double_no_lights.net.xml"/>
        <route-files value="double_1.rou.xml"/>
    </input>

    <output>
        <tripinfo-output value="emissions_test\z_no_lights_1_emissions_tripinfo_double.xml"/>
    </output>

    <processing>
        <time-to-teleport value="-1"/>
    </processing>

    <emissions>
        <device.emissions.probability value="1.0"/>
    </emissions>

    <traci_server>
        <remote-port value="58193"/>
    </traci_server>

</configuration>
-->

<tripinfos xmlns:xsi="http://www.w3.org/2001/XMLSchema-instance" xsi:noNamespaceSchemaLocation="http://sumo.dlr.de/xsd/tripinfo_file.xsd">
    <tripinfo id="f_0_8.0" depart="0.00" departLane="G5G6_0" departPos="5.10" departSpeed="0.00" departDelay="0.00" arrival="109.00" arrivalLane="G7G8_0" arrivalPos="491.30" arrivalSpeed="14.39" duration="109.00" routeLength="1493.50" waitingTime="0.00" waitingCount="0" stopTime="0.00" timeLoss="7.32" rerouteNo="0" devices="tripinfo_f_0_8.0 emissions_f_0_8.0" vType="DEFAULT_VEHTYPE" speedFactor="1.06" vaporized="">
        <emissions CO_abs="2354.193847" CO2_abs="287689.289442" HC_abs="16.704488" PMx_abs="3.958002" NOx_abs="106.472862" fuel_abs="91759.800057" electricity_abs="0"/>
    </tripinfo>
    <tripinfo id="f_0_16.0" depart="1.00" departLane="D2D3_0" departPos="5.10" departSpeed="0.00" departDelay="0.00" arrival="109.00" arrivalLane="D4D5_0" arrivalPos="492.80" arrivalSpeed="13.74" duration="108.00" routeLength="1494.90" waitingTime="0.00" waitingCount="0" stopTime="0.00" timeLoss="8.36" rerouteNo="0" devices="tripinfo_f_0_16.0 emissions_f_0_16.0" vType="DEFAULT_VEHTYPE" speedFactor="1.08" vaporized="">
        <emissions CO_abs="2248.737098" CO2_abs="280490.286595" HC_abs="15.678693" PMx_abs="3.639828" NOx_abs="101.404147" fuel_abs="89463.832636" electricity_abs="0"/>
    </tripinfo>
    <tripinfo id="f_0_8.1" depart="3.00" departLane="G5G6_0" departPos="5.10" departSpeed="0.00" departDelay="0.00" arrival="114.00" arrivalLane="G7G8_0" arrivalPos="491.30" arrivalSpeed="13.86" duration="111.00" routeLength="1493.50" waitingTime="0.00" waitingCount="0" stopTime="0.00" timeLoss="7.54" rerouteNo="0" devices="tripinfo_f_0_8.1 emissions_f_0_8.1" vType="DEFAULT_VEHTYPE" speedFactor="1.05" vaporized="">
        <emissions CO_abs="2417.851114" CO2_abs="287664.907330" HC_abs="16.757670" PMx_abs="3.869615" NOx_abs="105.297014" fuel_abs="91752.157406" electricity_abs="0"/>
    </tripinfo>
    <tripinfo id="f_0_9.0" depart="2.00" departLane="G9G8_0" departPos="5.10" departSpeed="0.00" departDelay="0.00" arrival="115.00" arrivalLane="G7G6_0" arrivalPos="492.80" arrivalSpeed="13.74" duration="113.00" routeLength="1494.90" waitingTime="0.00" waitingCount="0" stopTime="0.00" timeLoss="7.62" rerouteNo="0" devices="tripinfo_f_0_9.0 emissions_f_0_9.0" vType="DEFAULT_VEHTYPE" speedFactor="1.03" vaporized="">
        <emissions CO_abs="2172.182918" CO2_abs="282851.704648" HC_abs="15.500676" PMx_abs="3.539689" NOx_abs="101.821287" fuel_abs="90217.129936" electricity_abs="0"/>
    </tripinfo>
    <tripinfo id="f_0_8.2" depart="6.00" departLane="G5G6_0" departPos="5.10" departSpeed="0.00" departDelay="0.00" arrival="120.00" arrivalLane="G7G8_0" arrivalPos="491.30" arrivalSpeed="13.90" duration="114.00" routeLength="1493.50" waitingTime="0.00" waitingCount="0" stopTime="0.00" timeLoss="8.69" rerouteNo="0" devices="tripinfo_f_0_8.2 emissions_f_0_8.2" vType="DEFAULT_VEHTYPE" speedFactor="1.03" vaporized="">
        <emissions CO_abs="2460.708110" CO2_abs="285451.701296" HC_abs="17.243818" PMx_abs="3.819687" NOx_abs="105.038676" fuel_abs="91046.319174" electricity_abs="0"/>
    </tripinfo>
    <tripinfo id="f_0_17.0" depart="0.00" departLane="D6D5_0" departPos="5.10" departSpeed="0.00" departDelay="0.00" arrival="123.00" arrivalLane="D4D3_0" arrivalPos="491.30" arrivalSpeed="12.93" duration="123.00" routeLength="1493.50" waitingTime="0.00" waitingCount="0" stopTime="0.00" timeLoss="7.91" rerouteNo="0" devices="tripinfo_f_0_17.0 emissions_f_0_17.0" vType="DEFAULT_VEHTYPE" speedFactor="0.94" vaporized="">
        <emissions CO_abs="2841.597131" CO2_abs="295240.313582" HC_abs="19.242881" PMx_abs="3.985148" NOx_abs="110.319466" fuel_abs="94168.549199" electricity_abs="0"/>
    </tripinfo>
    <tripinfo id="f_0_8.3" depart="9.00" departLane="G5G6_0" departPos="5.10" departSpeed="0.00" departDelay="2.00" arrival="134.00" arrivalLane="G7G8_0" arrivalPos="491.30" arrivalSpeed="11.62" duration="125.00" routeLength="1493.50" waitingTime="0.00" waitingCount="0" stopTime="0.00" timeLoss="8.36" rerouteNo="0" devices="tripinfo_f_0_8.3 emissions_f_0_8.3" vType="DEFAULT_VEHTYPE" speedFactor="0.93" vaporized="">
        <emissions CO_abs="2667.878019" CO2_abs="291595.581932" HC_abs="18.449025" PMx_abs="3.711888" NOx_abs="107.542839" fuel_abs="93006.218756" electricity_abs="0"/>
    </tripinfo>
    <tripinfo id="f_0_17.1" depart="4.00" departLane="D6D5_0" departPos="5.10" departSpeed="0.00" departDelay="0.00" arrival="135.00" arrivalLane="D4D3_0" arrivalPos="491.30" arrivalSpeed="11.55" duration="131.00" routeLength="1493.50" waitingTime="0.00" waitingCount="0" stopTime="0.00" timeLoss="9.46" rerouteNo="0" devices="tripinfo_f_0_17.1 emissions_f_0_17.1" vType="DEFAULT_VEHTYPE" speedFactor="0.89" vaporized="">
        <emissions CO_abs="2876.158257" CO2_abs="304299.186374" HC_abs="19.753881" PMx_abs="3.640760" NOx_abs="111.105445" fuel_abs="97058.439747" electricity_abs="0"/>
    </tripinfo>
    <tripinfo id="f_0_8.4" depart="12.00" departLane="G5G6_0" departPos="5.10" departSpeed="0.00" departDelay="2.00" arrival="135.00" arrivalLane="G7G8_0" arrivalPos="491.30" arrivalSpeed="13.05" duration="123.00" routeLength="1493.50" waitingTime="0.00" waitingCount="0" stopTime="0.00" timeLoss="17.39" rerouteNo="0" devices="tripinfo_f_0_8.4 emissions_f_0_8.4" vType="DEFAULT_VEHTYPE" speedFactor="1.02" vaporized="">
        <emissions CO_abs="3445.756691" CO2_abs="319407.716744" HC_abs="22.693834" PMx_abs="4.712447" NOx_abs="122.408220" fuel_abs="101876.620776" electricity_abs="0"/>
    </tripinfo>
    <tripinfo id="f_0_17.2" depart="7.00" departLane="D6D5_0" departPos="5.10" departSpeed="0.00" departDelay="2.00" arrival="137.00" arrivalLane="D4D3_0" arrivalPos="491.30" arrivalSpeed="14.66" duration="130.00" routeLength="1493.50" waitingTime="0.00" waitingCount="0" stopTime="0.00" timeLoss="30.91" rerouteNo="0" devices="tripinfo_f_0_17.2 emissions_f_0_17.2" vType="DEFAULT_VEHTYPE" speedFactor="1.09" vaporized="">
        <emissions CO_abs="4105.138857" CO2_abs="341300.472418" HC_abs="26.456709" PMx_abs="5.314498" NOx_abs="133.859887" fuel_abs="108859.324235" electricity_abs="0"/>
    </tripinfo>
    <tripinfo id="f_0_17.3" depart="12.00" departLane="D6D5_0" departPos="5.10" departSpeed="0.00" departDelay="0.00" arrival="139.00" arrivalLane="D4D3_0" arrivalPos="491.30" arrivalSpeed="14.80" duration="127.00" routeLength="1493.50" waitingTime="0.00" waitingCount="0" stopTime="0.00" timeLoss="31.13" rerouteNo="0" devices="tripinfo_f_0_17.3 emissions_f_0_17.3" vType="DEFAULT_VEHTYPE" speedFactor="1.13" vaporized="">
        <emissions CO_abs="4380.001725" CO2_abs="362796.779745" HC_abs="27.982863" PMx_abs="5.759672" NOx_abs="142.338670" fuel_abs="115715.570157" electricity_abs="0"/>
    </tripinfo>
    <tripinfo id="f_0_17.4" depart="22.00" departLane="D6D5_0" departPos="5.10" departSpeed="0.00" departDelay="0.00" arrival="140.00" arrivalLane="D4D3_0" arrivalPos="491.30" arrivalSpeed="15.75" duration="118.00" routeLength="1493.50" waitingTime="0.00" waitingCount="0" stopTime="0.00" timeLoss="26.71" rerouteNo="0" devices="tripinfo_f_0_17.4 emissions_f_0_17.4" vType="DEFAULT_VEHTYPE" speedFactor="1.18" vaporized="">
        <emissions CO_abs="4300.481757" CO2_abs="357905.047205" HC_abs="27.479149" PMx_abs="5.932734" NOx_abs="141.430738" fuel_abs="114155.011044" electricity_abs="0"/>
    </tripinfo>
    <tripinfo id="f_0_9.1" depart="5.00" departLane="G9G8_0" departPos="5.10" departSpeed="0.00" departDelay="0.00" arrival="141.00" arrivalLane="G7G6_0" arrivalPos="492.80" arrivalSpeed="11.12" duration="136.00" routeLength="1494.90" waitingTime="0.00" waitingCount="0" stopTime="0.00" timeLoss="9.82" rerouteNo="0" devices="tripinfo_f_0_9.1 emissions_f_0_9.1" vType="DEFAULT_VEHTYPE" speedFactor="0.86" vaporized="">
        <emissions CO_abs="3234.940843" CO2_abs="304347.756758" HC_abs="21.544402" PMx_abs="3.857704" NOx_abs="113.281048" fuel_abs="97073.865543" electricity_abs="0"/>
    </tripinfo>
    <tripinfo id="f_0_9.2" depart="8.00" departLane="G9G8_0" departPos="5.10" departSpeed="0.00" departDelay="2.00" arrival="142.00" arrivalLane="G7G6_0" arrivalPos="492.80" arrivalSpeed="14.34" duration="134.00" routeLength="1494.90" waitingTime="0.00" waitingCount="0" stopTime="0.00" timeLoss="31.17" rerouteNo="0" devices="tripinfo_f_0_9.2 emissions_f_0_9.2" vType="DEFAULT_VEHTYPE" speedFactor="1.05" vaporized="">
        <emissions CO_abs="4392.208920" CO2_abs="356387.213564" HC_abs="28.196356" PMx_abs="5.455575" NOx_abs="139.409010" fuel_abs="113671.483173" electricity_abs="0"/>
    </tripinfo>
    <tripinfo id="f_0_17.5" depart="25.00" departLane="D6D5_0" departPos="5.10" departSpeed="0.00" departDelay="2.00" arrival="142.00" arrivalLane="D4D3_0" arrivalPos="491.30" arrivalSpeed="14.77" duration="117.00" routeLength="1493.50" waitingTime="0.00" waitingCount="0" stopTime="0.00" timeLoss="19.18" rerouteNo="0" devices="tripinfo_f_0_17.5 emissions_f_0_17.5" vType="DEFAULT_VEHTYPE" speedFactor="1.10" vaporized="">
        <emissions CO_abs="3696.827596" CO2_abs="342314.905838" HC_abs="24.156307" PMx_abs="5.284545" NOx_abs="131.972440" fuel_abs="109182.694433" electricity_abs="0"/>
    </tripinfo>
    <tripinfo id="f_0_16.1" depart="4.00" departLane="D2D3_0" departPos="5.10" departSpeed="0.00" departDelay="2.00" arrival="144.00" arrivalLane="D4D5_0" arrivalPos="492.80" arrivalSpeed="10.79" duration="140.00" routeLength="1494.90" waitingTime="0.00" waitingCount="0" stopTime="0.00" timeLoss="9.88" rerouteNo="0" devices="tripinfo_f_0_16.1 emissions_f_0_16.1" vType="DEFAULT_VEHTYPE" speedFactor="0.83" vaporized="">
        <emissions CO_abs="3334.274700" CO2_abs="300445.564887" HC_abs="21.992136" PMx_abs="3.760685" NOx_abs="111.876860" fuel_abs="95829.361572" electricity_abs="0"/>
    </tripinfo>
    <tripinfo id="f_0_9.3" depart="11.00" departLane="G9G8_0" departPos="5.10" departSpeed="0.00" departDelay="1.00" arrival="144.00" arrivalLane="G7G6_0" arrivalPos="492.80" arrivalSpeed="13.52" duration="133.00" routeLength="1494.90" waitingTime="0.00" waitingCount="0" stopTime="0.00" timeLoss="26.19" rerouteNo="0" devices="tripinfo_f_0_9.3 emissions_f_0_9.3" vType="DEFAULT_VEHTYPE" speedFactor="1.01" vaporized="">
        <emissions CO_abs="4483.239841" CO2_abs="363696.085668" HC_abs="28.705730" PMx_abs="5.659741" NOx_abs="142.746209" fuel_abs="116002.561018" electricity_abs="0"/>
    </tripinfo>
    <tripinfo id="f_0_16.2" depart="7.00" departLane="D2D3_0" departPos="5.10" departSpeed="0.00" departDelay="0.00" arrival="146.00" arrivalLane="D4D5_0" arrivalPos="492.80" arrivalSpeed="11.42" duration="139.00" routeLength="1494.90" waitingTime="0.00" waitingCount="0" stopTime="0.00" timeLoss="15.66" rerouteNo="0" devices="tripinfo_f_0_16.2 emissions_f_0_16.2" vType="DEFAULT_VEHTYPE" speedFactor="0.88" vaporized="">
        <emissions CO_abs="4057.569500" CO2_abs="332284.999793" HC_abs="26.068820" PMx_abs="4.780568" NOx_abs="128.162675" fuel_abs="105984.270067" electricity_abs="0"/>
    </tripinfo>
    <tripinfo id="f_0_9.4" depart="14.00" departLane="G9G8_0" departPos="5.10" departSpeed="0.00" departDelay="2.00" arrival="146.00" arrivalLane="G7G6_0" arrivalPos="492.80" arrivalSpeed="12.31" duration="132.00" routeLength="1494.90" waitingTime="0.00" waitingCount="0" stopTime="0.00" timeLoss="14.41" rerouteNo="0" devices="tripinfo_f_0_9.4 emissions_f_0_9.4" vType="DEFAULT_VEHTYPE" speedFactor="0.92" vaporized="">
        <emissions CO_abs="3982.462476" CO2_abs="347823.707825" HC_abs="26.038766" PMx_abs="5.065512" NOx_abs="133.918654" fuel_abs="110940.235472" electricity_abs="0"/>
    </tripinfo>
    <tripinfo id="f_0_16.3" depart="10.00" departLane="D2D3_0" departPos="5.10" departSpeed="0.00" departDelay="1.00" arrival="147.00" arrivalLane="D4D5_0" arrivalPos="492.80" arrivalSpeed="12.75" duration="137.00" routeLength="1494.90" waitingTime="0.00" waitingCount="0" stopTime="0.00" timeLoss="21.89" rerouteNo="0" devices="tripinfo_f_0_16.3 emissions_f_0_16.3" vType="DEFAULT_VEHTYPE" speedFactor="0.94" vaporized="">
        <emissions CO_abs="4621.723656" CO2_abs="357191.778564" HC_abs="29.268692" PMx_abs="5.628365" NOx_abs="141.175645" fuel_abs="113928.022606" electricity_abs="0"/>
    </tripinfo>
    <tripinfo id="f_0_8.5" depart="15.00" departLane="G5G6_0" departPos="5.10" departSpeed="0.00" departDelay="4.00" arrival="147.00" arrivalLane="G7G8_0" arrivalPos="491.30" arrivalSpeed="11.29" duration="132.00" routeLength="1493.50" waitingTime="0.00" waitingCount="0" stopTime="0.00" timeLoss="10.29" rerouteNo="0" devices="tripinfo_f_0_8.5 emissions_f_0_8.5" vType="DEFAULT_VEHTYPE" speedFactor="0.89" vaporized="">
        <emissions CO_abs="2958.028489" CO2_abs="300513.268496" HC_abs="20.017071" PMx_abs="3.694789" NOx_abs="110.429832" fuel_abs="95850.849809" electricity_abs="0"/>
    </tripinfo>
    <tripinfo id="f_0_9.5" depart="17.00" departLane="G9G8_0" departPos="5.10" departSpeed="0.00" departDelay="4.00" arrival="148.00" arrivalLane="G7G6_0" arrivalPos="492.80" arrivalSpeed="12.87" duration="131.00" routeLength="1494.90" waitingTime="0.00" waitingCount="0" stopTime="0.00" timeLoss="14.86" rerouteNo="0" devices="tripinfo_f_0_9.5 emissions_f_0_9.5" vType="DEFAULT_VEHTYPE" speedFactor="0.93" vaporized="">
        <emissions CO_abs="3694.672349" CO2_abs="344353.284923" HC_abs="24.413243" PMx_abs="4.755781" NOx_abs="130.307921" fuel_abs="109833.495304" electricity_abs="0"/>
    </tripinfo>
    <tripinfo id="f_0_16.4" depart="13.00" departLane="D2D3_0" departPos="5.10" departSpeed="0.00" departDelay="1.00" arrival="149.00" arrivalLane="D4D5_0" arrivalPos="492.80" arrivalSpeed="11.91" duration="136.00" routeLength="1494.90" waitingTime="0.00" waitingCount="0" stopTime="0.00" timeLoss="22.25" rerouteNo="0" devices="tripinfo_f_0_16.4 emissions_f_0_16.4" vType="DEFAULT_VEHTYPE" speedFactor="0.95" vaporized="">
        <emissions CO_abs="4653.520548" CO2_abs="360068.624764" HC_abs="29.441642" PMx_abs="5.719054" NOx_abs="142.339152" fuel_abs="114845.574666" electricity_abs="0"/>
    </tripinfo>
    <tripinfo id="f_0_16.5" depart="16.00" departLane="D2D3_0" departPos="5.10" departSpeed="0.00" departDelay="1.00" arrival="151.00" arrivalLane="D4D5_0" arrivalPos="492.80" arrivalSpeed="14.85" duration="135.00" routeLength="1494.90" waitingTime="0.00" waitingCount="0" stopTime="0.00" timeLoss="41.07" rerouteNo="0" devices="tripinfo_f_0_16.5 emissions_f_0_16.5" vType="DEFAULT_VEHTYPE" speedFactor="1.15" vaporized="">
        <emissions CO_abs="5483.948874" CO2_abs="407136.545893" HC_abs="34.406776" PMx_abs="6.862569" NOx_abs="163.837740" fuel_abs="129857.768216" electricity_abs="0"/>
    </tripinfo>
    <tripinfo id="f_0_17.6" depart="29.00" departLane="D6D5_0" departPos="5.10" departSpeed="0.00" departDelay="0.00" arrival="157.00" arrivalLane="D4D3_0" arrivalPos="491.30" arrivalSpeed="13.93" duration="128.00" routeLength="1493.50" waitingTime="14.00" waitingCount="1" stopTime="0.00" timeLoss="29.03" rerouteNo="0" devices="tripinfo_f_0_17.6 emissions_f_0_17.6" vType="DEFAULT_VEHTYPE" speedFactor="1.09" vaporized="">
        <emissions CO_abs="5967.376634" CO2_abs="366393.259575" HC_abs="34.786709" PMx_abs="5.826166" NOx_abs="141.503024" fuel_abs="116863.680850" electricity_abs="0"/>
    </tripinfo>
    <tripinfo id="f_0_1.0" depart="1.00" departLane="F7E7_0" departPos="5.10" departSpeed="0.00" departDelay="0.00" arrival="158.00" arrivalLane="C7B7_0" arrivalPos="491.30" arrivalSpeed="13.73" duration="157.00" routeLength="1993.50" waitingTime="0.00" waitingCount="0" stopTime="0.00" timeLoss="14.29" rerouteNo="0" devices="tripinfo_f_0_1.0 emissions_f_0_1.0" vType="DEFAULT_VEHTYPE" speedFactor="1.01" vaporized="">
        <emissions CO_abs="3760.853328" CO2_abs="409000.257943" HC_abs="25.659167" PMx_abs="5.563231" NOx_abs="151.962946" fuel_abs="130452.769342" electricity_abs="0"/>
    </tripinfo>
    <tripinfo id="f_0_9.6" depart="20.00" departLane="G9G8_0" departPos="5.10" departSpeed="0.00" departDelay="1.00" arrival="164.00" arrivalLane="G7G6_0" arrivalPos="492.80" arrivalSpeed="13.72" duration="144.00" routeLength="1494.90" waitingTime="21.00" waitingCount="1" stopTime="0.00" timeLoss="35.36" rerouteNo="0" devices="tripinfo_f_0_9.6 emissions_f_0_9.6" vType="DEFAULT_VEHTYPE" speedFactor="0.99" vaporized="">
        <emissions CO_abs="6930.197374" CO2_abs="379668.848762" HC_abs="39.920586" PMx_abs="5.988712" NOx_abs="147.814209" fuel_abs="121098.574835" electricity_abs="0"/>
    </tripinfo>
    <tripinfo id="f_0_1.1" depart="7.00" departLane="F7E7_0" departPos="5.10" departSpeed="0.00" departDelay="0.00" arrival="165.00" arrivalLane="C7B7_0" arrivalPos="491.30" arrivalSpeed="13.28" duration="158.00" routeLength="1993.50" waitingTime="0.00" waitingCount="0" stopTime="0.00" timeLoss="12.60" rerouteNo="0" devices="tripinfo_f_0_1.1 emissions_f_0_1.1" vType="DEFAULT_VEHTYPE" speedFactor="0.99" vaporized="">
        <emissions CO_abs="3783.337735" CO2_abs="411601.680711" HC_abs="25.942478" PMx_abs="5.661684" NOx_abs="153.700065" fuel_abs="131282.437483" electricity_abs="0"/>
    </tripinfo>
    <tripinfo id="f_0_9.7" depart="25.00" departLane="G9G8_0" departPos="5.10" departSpeed="0.00" departDelay="0.00" arrival="166.00" arrivalLane="G7G6_0" arrivalPos="492.80" arrivalSpeed="13.14" duration="141.00" routeLength="1494.90" waitingTime="20.00" waitingCount="1" stopTime="0.00" timeLoss="35.87" rerouteNo="0" devices="tripinfo_f_0_9.7 emissions_f_0_9.7" vType="DEFAULT_VEHTYPE" speedFactor="1.03" vaporized="">
        <emissions CO_abs="6754.713564" CO2_abs="384130.125133" HC_abs="39.093753" PMx_abs="6.063614" NOx_abs="149.255063" fuel_abs="122521.364453" electricity_abs="0"/>
    </tripinfo>
    <tripinfo id="f_0_9.8" depart="28.00" departLane="G9G8_0" departPos="5.10" departSpeed="0.00" departDelay="0.00" arrival="167.00" arrivalLane="G7G6_0" arrivalPos="492.80" arrivalSpeed="14.34" duration="139.00" routeLength="1494.90" waitingTime="18.00" waitingCount="1" stopTime="0.00" timeLoss="35.19" rerouteNo="0" devices="tripinfo_f_0_9.8 emissions_f_0_9.8" vType="DEFAULT_VEHTYPE" speedFactor="1.04" vaporized="">
        <emissions CO_abs="6891.338358" CO2_abs="384553.678502" HC_abs="39.886084" PMx_abs="6.339954" NOx_abs="151.746123" fuel_abs="122656.211561" electricity_abs="0"/>
    </tripinfo>
    <tripinfo id="f_0_0.0" depart="5.00" departLane="A7B7_0" departPos="5.10" departSpeed="0.00" departDelay="0.00" arrival="172.00" arrivalLane="D7E7_0" arrivalPos="492.80" arrivalSpeed="12.81" duration="167.00" routeLength="1994.90" waitingTime="0.00" waitingCount="0" stopTime="0.00" timeLoss="13.62" rerouteNo="0" devices="tripinfo_f_0_0.0 emissions_f_0_0.0" vType="DEFAULT_VEHTYPE" speedFactor="0.94" vaporized="">
        <emissions CO_abs="4113.594783" CO2_abs="425840.880164" HC_abs="28.012431" PMx_abs="5.725450" NOx_abs="159.443352" fuel_abs="135824.353849" electricity_abs="0"/>
    </tripinfo>
    <tripinfo id="f_0_16.6" depart="24.00" departLane="D2D3_0" departPos="5.10" departSpeed="0.00" departDelay="0.00" arrival="172.00" arrivalLane="D4D5_0" arrivalPos="492.80" arrivalSpeed="11.94" duration="148.00" routeLength="1494.90" waitingTime="13.00" waitingCount="1" stopTime="0.00" timeLoss="27.97" rerouteNo="0" devices="tripinfo_f_0_16.6 emissions_f_0_16.6" vType="DEFAULT_VEHTYPE" speedFactor="0.90" vaporized="">
        <emissions CO_abs="5926.710615" CO2_abs="360858.264377" HC_abs="35.129258" PMx_abs="5.293661" NOx_abs="139.144500" fuel_abs="115098.777337" electricity_abs="0"/>
    </tripinfo>
    <tripinfo id="f_0_0.1" depart="8.00" departLane="A7B7_0" departPos="5.10" departSpeed="0.00" departDelay="1.00" arrival="174.00" arrivalLane="D7E7_0" arrivalPos="492.80" arrivalSpeed="15.36" duration="166.00" routeLength="1994.90" waitingTime="0.00" waitingCount="0" stopTime="0.00" timeLoss="37.42" rerouteNo="0" devices="tripinfo_f_0_0.1 emissions_f_0_0.1" vType="DEFAULT_VEHTYPE" speedFactor="1.12" vaporized="">
        <emissions CO_abs="5633.167512" CO2_abs="477693.857640" HC_abs="36.567497" PMx_abs="7.663131" NOx_abs="188.200867" fuel_abs="152362.316810" electricity_abs="0"/>
    </tripinfo>
    <tripinfo id="f_0_1.2" depart="11.00" departLane="F7E7_0" departPos="5.10" departSpeed="0.00" departDelay="0.00" arrival="174.00" arrivalLane="C7B7_0" arrivalPos="491.30" arrivalSpeed="12.93" duration="163.00" routeLength="1993.50" waitingTime="0.00" waitingCount="0" stopTime="0.00" timeLoss="15.05" rerouteNo="0" devices="tripinfo_f_0_1.2 emissions_f_0_1.2" vType="DEFAULT_VEHTYPE" speedFactor="0.97" vaporized="">
        <emissions CO_abs="3857.453841" CO2_abs="411861.728532" HC_abs="26.014791" PMx_abs="5.365023" NOx_abs="151.706713" fuel_abs="131365.748866" electricity_abs="0"/>
    </tripinfo>
    <tripinfo id="f_0_8.6" depart="18.00" departLane="G5G6_0" departPos="5.10" departSpeed="0.00" departDelay="6.00" arrival="174.00" arrivalLane="G7G8_0" arrivalPos="491.30" arrivalSpeed="11.10" duration="156.00" routeLength="1493.50" waitingTime="18.00" waitingCount="1" stopTime="0.00" timeLoss="32.46" rerouteNo="0" devices="tripinfo_f_0_8.6 emissions_f_0_8.6" vType="DEFAULT_VEHTYPE" speedFactor="0.87" vaporized="">
        <emissions CO_abs="6848.643105" CO2_abs="359015.757703" HC_abs="39.281807" PMx_abs="5.530317" NOx_abs="140.459027" fuel_abs="114511.381448" electricity_abs="0"/>
    </tripinfo>
    <tripinfo id="f_0_16.7" depart="27.00" departLane="D2D3_0" departPos="5.10" departSpeed="0.00" departDelay="1.00" arrival="174.00" arrivalLane="D4D5_0" arrivalPos="492.80" arrivalSpeed="14.55" duration="147.00" routeLength="1494.90" waitingTime="12.00" waitingCount="1" stopTime="0.00" timeLoss="47.58" rerouteNo="0" devices="tripinfo_f_0_16.7 emissions_f_0_16.7" vType="DEFAULT_VEHTYPE" speedFactor="1.09" vaporized="">
        <emissions CO_abs="6548.619372" CO2_abs="389225.743784" HC_abs="38.601811" PMx_abs="6.248095" NOx_abs="153.571946" fuel_abs="124146.296123" electricity_abs="0"/>
    </tripinfo>
    <tripinfo id="f_0_16.8" depart="30.00" departLane="D2D3_0" departPos="5.10" departSpeed="0.00" departDelay="2.00" arrival="175.00" arrivalLane="D4D5_0" arrivalPos="492.80" arrivalSpeed="13.64" duration="145.00" routeLength="1494.90" waitingTime="11.00" waitingCount="1" stopTime="0.00" timeLoss="41.64" rerouteNo="0" devices="tripinfo_f_0_16.8 emissions_f_0_16.8" vType="DEFAULT_VEHTYPE" speedFactor="1.04" vaporized="">
        <emissions CO_abs="6793.643214" CO2_abs="402029.019749" HC_abs="40.034554" PMx_abs="6.751242" NOx_abs="160.669640" fuel_abs="128229.651925" electricity_abs="0"/>
    </tripinfo>
    <tripinfo id="f_0_8.7" depart="21.00" departLane="G5G6_0" departPos="5.10" departSpeed="0.00" departDelay="6.00" arrival="176.00" arrivalLane="G7G8_0" arrivalPos="491.30" arrivalSpeed="16.08" duration="155.00" routeLength="1493.50" waitingTime="17.00" waitingCount="1" stopTime="0.00" timeLoss="62.94" rerouteNo="0" devices="tripinfo_f_0_8.7 emissions_f_0_8.7" vType="DEFAULT_VEHTYPE" speedFactor="1.18" vaporized="">
        <emissions CO_abs="8003.039680" CO2_abs="416957.854725" HC_abs="46.122907" PMx_abs="7.277190" NOx_abs="169.362706" fuel_abs="132991.556930" electricity_abs="0"/>
    </tripinfo>
    <tripinfo id="f_0_1.3" depart="18.00" departLane="F7E7_0" departPos="5.10" departSpeed="0.00" departDelay="0.00" arrival="176.00" arrivalLane="C7B7_0" arrivalPos="491.30" arrivalSpeed="13.60" duration="158.00" routeLength="1993.50" waitingTime="0.00" waitingCount="0" stopTime="0.00" timeLoss="14.29" rerouteNo="0" devices="tripinfo_f_0_1.3 emissions_f_0_1.3" vType="DEFAULT_VEHTYPE" speedFactor="1.01" vaporized="">
        <emissions CO_abs="3780.510706" CO2_abs="413489.749617" HC_abs="25.652616" PMx_abs="5.545405" NOx_abs="153.017381" fuel_abs="131884.765897" electricity_abs="0"/>
    </tripinfo>
    <tripinfo id="f_0_0.2" depart="11.00" departLane="A7B7_0" departPos="5.10" departSpeed="0.00" departDelay="3.00" arrival="177.00" arrivalLane="D7E7_0" arrivalPos="492.80" arrivalSpeed="12.12" duration="166.00" routeLength="1994.90" waitingTime="0.00" waitingCount="0" stopTime="0.00" timeLoss="12.86" rerouteNo="0" devices="tripinfo_f_0_0.2 emissions_f_0_0.2" vType="DEFAULT_VEHTYPE" speedFactor="0.94" vaporized="">
        <emissions CO_abs="3674.291101" CO2_abs="403540.980544" HC_abs="25.365304" PMx_abs="5.179246" NOx_abs="149.117367" fuel_abs="128711.821982" electricity_abs="0"/>
    </tripinfo>
    <tripinfo id="f_0_1.4" depart="21.00" departLane="F7E7_0" departPos="5.10" departSpeed="0.00" departDelay="2.00" arrival="177.00" arrivalLane="C7B7_0" arrivalPos="491.30" arrivalSpeed="15.18" duration="156.00" routeLength="1993.50" waitingTime="0.00" waitingCount="0" stopTime="0.00" timeLoss="33.22" rerouteNo="0" devices="tripinfo_f_0_1.4 emissions_f_0_1.4" vType="DEFAULT_VEHTYPE" speedFactor="1.17" vaporized="">
        <emissions CO_abs="4746.646098" CO2_abs="451334.597997" HC_abs="31.311188" PMx_abs="6.871478" NOx_abs="173.589644" fuel_abs="143955.018020" electricity_abs="0"/>
    </tripinfo>
    <tripinfo id="f_0_9.9" depart="31.00" departLane="G9G8_0" departPos="5.10" departSpeed="0.00" departDelay="1.00" arrival="177.00" arrivalLane="G7G6_0" arrivalPos="492.80" arrivalSpeed="12.15" duration="146.00" routeLength="1494.90" waitingTime="11.00" waitingCount="1" stopTime="0.00" timeLoss="25.99" rerouteNo="0" devices="tripinfo_f_0_9.9 emissions_f_0_9.9" vType="DEFAULT_VEHTYPE" speedFactor="0.90" vaporized="">
        <emissions CO_abs="5351.508396" CO2_abs="346108.343838" HC_abs="31.909094" PMx_abs="4.890292" NOx_abs="131.686452" fuel_abs="110394.191622" electricity_abs="0"/>
    </tripinfo>
    <tripinfo id="f_0_8.8" depart="32.00" departLane="G5G6_0" departPos="5.10" departSpeed="0.00" departDelay="0.00" arrival="177.00" arrivalLane="G7G8_0" arrivalPos="491.30" arrivalSpeed="12.98" duration="145.00" routeLength="1493.50" waitingTime="13.00" waitingCount="1" stopTime="0.00" timeLoss="37.73" rerouteNo="0" devices="tripinfo_f_0_8.8 emissions_f_0_8.8" vType="DEFAULT_VEHTYPE" speedFactor="1.00" vaporized="">
        <emissions CO_abs="6781.002201" CO2_abs="391115.574311" HC_abs="39.635470" PMx_abs="6.439999" NOx_abs="155.545685" fuel_abs="124748.971585" electricity_abs="0"/>
    </tripinfo>
    <tripinfo id="f_0_0.3" depart="14.00" departLane="A7B7_0" departPos="5.10" departSpeed="0.00" departDelay="4.00" arrival="178.00" arrivalLane="D7E7_0" arrivalPos="492.80" arrivalSpeed="14.31" duration="164.00" routeLength="1994.90" waitingTime="0.00" waitingCount="0" stopTime="0.00" timeLoss="39.95" rerouteNo="0" devices="tripinfo_f_0_0.3 emissions_f_0_0.3" vType="DEFAULT_VEHTYPE" speedFactor="1.16" vaporized="">
        <emissions CO_abs="5399.899208" CO2_abs="476397.053150" HC_abs="35.073005" PMx_abs="7.414271" NOx_abs="185.200942" fuel_abs="151948.824658" electricity_abs="0"/>
    </tripinfo>
    <tripinfo id="f_0_17.7" depart="32.00" departLane="D6D5_0" departPos="5.10" departSpeed="0.00" departDelay="2.00" arrival="179.00" arrivalLane="D4D3_0" arrivalPos="491.30" arrivalSpeed="11.24" duration="147.00" routeLength="1493.50" waitingTime="4.00" waitingCount="1" stopTime="0.00" timeLoss="20.09" rerouteNo="0" devices="tripinfo_f_0_17.7 emissions_f_0_17.7" vType="DEFAULT_VEHTYPE" speedFactor="0.85" vaporized="">
        <emissions CO_abs="4745.505661" CO2_abs="338701.063429" HC_abs="29.183833" PMx_abs="4.622983" NOx_abs="128.411148" fuel_abs="108031.445069" electricity_abs="0"/>
    </tripinfo>
    <tripinfo id="f_0_9.10" depart="34.00" departLane="G9G8_0" departPos="5.10" departSpeed="0.00" departDelay="1.00" arrival="179.00" arrivalLane="G7G6_0" arrivalPos="492.80" arrivalSpeed="11.79" duration="145.00" routeLength="1494.90" waitingTime="8.00" waitingCount="1" stopTime="0.00" timeLoss="25.04" rerouteNo="0" devices="tripinfo_f_0_9.10 emissions_f_0_9.10" vType="DEFAULT_VEHTYPE" speedFactor="0.90" vaporized="">
        <emissions CO_abs="5383.750986" CO2_abs="346674.486545" HC_abs="32.292215" PMx_abs="4.959349" NOx_abs="132.662133" fuel_abs="110574.701206" electricity_abs="0"/>
    </tripinfo>
    <tripinfo id="f_0_8.9" depart="38.00" departLane="G5G6_0" departPos="5.10" departSpeed="0.00" departDelay="0.00" arrival="179.00" arrivalLane="G7G8_0" arrivalPos="491.30" arrivalSpeed="12.20" duration="141.00" routeLength="1493.50" waitingTime="6.00" waitingCount="1" stopTime="0.00" timeLoss="23.41" rerouteNo="0" devices="tripinfo_f_0_8.9 emissions_f_0_8.9" vType="DEFAULT_VEHTYPE" speedFactor="0.91" vaporized="">
        <emissions CO_abs="5412.512964" CO2_abs="361181.204036" HC_abs="32.901737" PMx_abs="5.667394" NOx_abs="142.209698" fuel_abs="115200.988729" electricity_abs="0"/>
    </tripinfo>
    <tripinfo id="f_0_16.9" depart="33.00" departLane="D2D3_0" departPos="5.10" departSpeed="0.00" departDelay="3.00" arrival="180.00" arrivalLane="D4D5_0" arrivalPos="492.80" arrivalSpeed="11.02" duration="147.00" routeLength="1494.90" waitingTime="6.00" waitingCount="1" stopTime="0.00" timeLoss="23.45" rerouteNo="0" devices="tripinfo_f_0_16.9 emissions_f_0_16.9" vType="DEFAULT_VEHTYPE" speedFactor="0.88" vaporized="">