<?xml version="1.0" encoding="UTF-8"?>

<!-- generated on 2024-08-22 13:35:03 by Eclipse SUMO sumo Version 1.17.0
<configuration xmlns:xsi="http://www.w3.org/2001/XMLSchema-instance" xsi:noNamespaceSchemaLocation="http://sumo.dlr.de/xsd/sumoConfiguration.xsd">

    <input>
        <net-file value="double_no_lights.net.xml"/>
        <route-files value="double_4.rou.xml"/>
    </input>

    <output>
        <tripinfo-output value="emissions_test\z_no_lights_4_emissions_tripinfo_double.xml"/>
    </output>

    <processing>
        <time-to-teleport value="-1"/>
    </processing>

    <emissions>
        <device.emissions.probability value="1.0"/>
    </emissions>

    <traci_server>
        <remote-port value="58199"/>
    </traci_server>

</configuration>
-->

<tripinfos xmlns:xsi="http://www.w3.org/2001/XMLSchema-instance" xsi:noNamespaceSchemaLocation="http://sumo.dlr.de/xsd/tripinfo_file.xsd">
    <tripinfo id="f_1_21.0" depart="4.00" departLane="G6G5_0" departPos="5.10" departSpeed="0.00" departDelay="0.00" arrival="103.00" arrivalLane="G4G3_0" arrivalPos="491.30" arrivalSpeed="16.28" duration="99.00" routeLength="1493.50" waitingTime="0.00" waitingCount="0" stopTime="0.00" timeLoss="7.47" rerouteNo="0" devices="tripinfo_f_1_21.0 emissions_f_1_21.0" vType="DEFAULT_VEHTYPE" speedFactor="1.18" vaporized="">
        <emissions CO_abs="2535.795064" CO2_abs="291823.561653" HC_abs="17.315338" PMx_abs="4.238003" NOx_abs="107.395092" fuel_abs="93078.272582" electricity_abs="0"/>
    </tripinfo>
    <tripinfo id="f_1_17.0" depart="5.00" departLane="D6D5_0" departPos="5.10" departSpeed="0.00" departDelay="0.00" arrival="104.00" arrivalLane="D4D3_0" arrivalPos="491.30" arrivalSpeed="16.04" duration="99.00" routeLength="1493.50" waitingTime="0.00" waitingCount="0" stopTime="0.00" timeLoss="6.77" rerouteNo="0" devices="tripinfo_f_1_17.0 emissions_f_1_17.0" vType="DEFAULT_VEHTYPE" speedFactor="1.17" vaporized="">
        <emissions CO_abs="2357.618341" CO2_abs="298787.305009" HC_abs="16.541511" PMx_abs="4.190306" NOx_abs="108.762401" fuel_abs="95299.426907" electricity_abs="0"/>
    </tripinfo>
    <tripinfo id="f_1_14.0" depart="1.00" departLane="C2C3_0" departPos="5.10" departSpeed="0.00" departDelay="0.00" arrival="107.00" arrivalLane="C4C5_0" arrivalPos="492.80" arrivalSpeed="14.64" duration="106.00" routeLength="1494.90" waitingTime="0.00" waitingCount="0" stopTime="0.00" timeLoss="7.01" rerouteNo="0" devices="tripinfo_f_1_14.0 emissions_f_1_14.0" vType="DEFAULT_VEHTYPE" speedFactor="1.09" vaporized="">
        <emissions CO_abs="2109.414997" CO2_abs="279442.595319" HC_abs="15.117438" PMx_abs="3.626300" NOx_abs="100.763546" fuel_abs="89129.612609" electricity_abs="0"/>
    </tripinfo>
    <tripinfo id="f_1_10.0" depart="0.00" departLane="H5H6_0" departPos="5.10" departSpeed="0.00" departDelay="0.00" arrival="108.00" arrivalLane="H7H8_0" arrivalPos="491.30" arrivalSpeed="14.00" duration="108.00" routeLength="1493.50" waitingTime="0.00" waitingCount="0" stopTime="0.00" timeLoss="8.08" rerouteNo="0" devices="tripinfo_f_1_10.0 emissions_f_1_10.0" vType="DEFAULT_VEHTYPE" speedFactor="1.08" vaporized="">
        <emissions CO_abs="2241.096546" CO2_abs="281007.166193" HC_abs="15.747069" PMx_abs="3.679993" NOx_abs="101.932125" fuel_abs="89628.649729" electricity_abs="0"/>
    </tripinfo>
    <tripinfo id="f_0_2.0" depart="0.00" departLane="C5C6_0" departPos="5.10" departSpeed="0.00" departDelay="0.00" arrival="110.00" arrivalLane="C7C8_0" arrivalPos="491.30" arrivalSpeed="14.20" duration="110.00" routeLength="1493.50" waitingTime="0.00" waitingCount="0" stopTime="0.00" timeLoss="7.86" rerouteNo="0" devices="tripinfo_f_0_2.0 emissions_f_0_2.0" vType="DEFAULT_VEHTYPE" speedFactor="1.06" vaporized="">
        <emissions CO_abs="2504.454882" CO2_abs="289819.728504" HC_abs="17.523732" PMx_abs="4.075866" NOx_abs="108.092653" fuel_abs="92439.293118" electricity_abs="0"/>
    </tripinfo>
    <tripinfo id="f_1_16.0" depart="0.00" departLane="D2D3_0" departPos="5.10" departSpeed="0.00" departDelay="0.00" arrival="113.00" arrivalLane="D4D5_0" arrivalPos="492.80" arrivalSpeed="13.35" duration="113.00" routeLength="1494.90" waitingTime="0.00" waitingCount="0" stopTime="0.00" timeLoss="8.06" rerouteNo="0" devices="tripinfo_f_1_16.0 emissions_f_1_16.0" vType="DEFAULT_VEHTYPE" speedFactor="1.03" vaporized="">
        <emissions CO_abs="2627.352010" CO2_abs="288245.049040" HC_abs="17.881300" PMx_abs="4.003174" NOx_abs="107.251878" fuel_abs="91937.151018" electricity_abs="0"/>
    </tripinfo>
    <tripinfo id="f_1_16.1" depart="6.00" departLane="D2D3_0" departPos="5.10" departSpeed="0.00" departDelay="0.00" arrival="115.00" arrivalLane="D4D5_0" arrivalPos="492.80" arrivalSpeed="14.83" duration="109.00" routeLength="1494.90" waitingTime="0.00" waitingCount="0" stopTime="0.00" timeLoss="10.56" rerouteNo="0" devices="tripinfo_f_1_16.1 emissions_f_1_16.1" vType="DEFAULT_VEHTYPE" speedFactor="1.10" vaporized="">
        <emissions CO_abs="2872.571082" CO2_abs="302822.288292" HC_abs="19.457470" PMx_abs="4.506677" NOx_abs="114.268160" fuel_abs="96586.384204" electricity_abs="0"/>
    </tripinfo>
    <tripinfo id="f_1_17.1" depart="8.00" departLane="D6D5_0" departPos="5.10" departSpeed="0.00" departDelay="1.00" arrival="119.00" arrivalLane="D4D3_0" arrivalPos="491.30" arrivalSpeed="13.41" duration="111.00" routeLength="1493.50" waitingTime="0.00" waitingCount="0" stopTime="0.00" timeLoss="7.39" rerouteNo="0" devices="tripinfo_f_1_17.1 emissions_f_1_17.1" vType="DEFAULT_VEHTYPE" speedFactor="1.04" vaporized="">
        <emissions CO_abs="2222.419064" CO2_abs="289587.666038" HC_abs="15.636747" PMx_abs="3.636668" NOx_abs="104.229324" fuel_abs="92365.555619" electricity_abs="0"/>
    </tripinfo>
    <tripinfo id="f_1_17.2" depart="11.00" departLane="D6D5_0" departPos="5.10" departSpeed="0.00" departDelay="3.00" arrival="120.00" arrivalLane="D4D3_0" arrivalPos="491.30" arrivalSpeed="15.90" duration="109.00" routeLength="1493.50" waitingTime="0.00" waitingCount="0" stopTime="0.00" timeLoss="16.97" rerouteNo="0" devices="tripinfo_f_1_17.2 emissions_f_1_17.2" vType="DEFAULT_VEHTYPE" speedFactor="1.17" vaporized="">
        <emissions CO_abs="3033.160245" CO2_abs="312105.668040" HC_abs="20.553783" PMx_abs="4.766003" NOx_abs="119.185552" fuel_abs="99547.260357" electricity_abs="0"/>
    </tripinfo>
    <tripinfo id="f_1_16.2" depart="9.00" departLane="D2D3_0" departPos="5.10" departSpeed="0.00" departDelay="2.00" arrival="121.00" arrivalLane="D4D5_0" arrivalPos="492.80" arrivalSpeed="14.16" duration="112.00" routeLength="1494.90" waitingTime="0.00" waitingCount="0" stopTime="0.00" timeLoss="8.11" rerouteNo="0" devices="tripinfo_f_1_16.2 emissions_f_1_16.2" vType="DEFAULT_VEHTYPE" speedFactor="1.04" vaporized="">
        <emissions CO_abs="2285.007232" CO2_abs="290927.185058" HC_abs="16.123200" PMx_abs="3.654772" NOx_abs="105.295346" fuel_abs="92792.824381" electricity_abs="0"/>
    </tripinfo>
    <tripinfo id="f_0_2.1" depart="3.00" departLane="C5C6_0" departPos="5.10" departSpeed="0.00" departDelay="0.00" arrival="122.00" arrivalLane="C7C8_0" arrivalPos="491.30" arrivalSpeed="13.21" duration="119.00" routeLength="1493.50" waitingTime="0.00" waitingCount="0" stopTime="0.00" timeLoss="8.59" rerouteNo="0" devices="tripinfo_f_0_2.1 emissions_f_0_2.1" vType="DEFAULT_VEHTYPE" speedFactor="0.97" vaporized="">
        <emissions CO_abs="2700.436328" CO2_abs="294325.506753" HC_abs="18.577742" PMx_abs="3.941916" NOx_abs="109.218111" fuel_abs="93876.743182" electricity_abs="0"/>
    </tripinfo>
    <tripinfo id="f_1_23.0" depart="5.00" departLane="H6H5_0" departPos="5.10" departSpeed="0.00" departDelay="0.00" arrival="122.00" arrivalLane="H4H3_0" arrivalPos="491.30" arrivalSpeed="13.78" duration="117.00" routeLength="1493.50" waitingTime="0.00" waitingCount="0" stopTime="0.00" timeLoss="7.96" rerouteNo="0" devices="tripinfo_f_1_23.0 emissions_f_1_23.0" vType="DEFAULT_VEHTYPE" speedFactor="0.99" vaporized="">
        <emissions CO_abs="2377.493885" CO2_abs="285488.902789" HC_abs="16.639679" PMx_abs="3.646983" NOx_abs="104.428757" fuel_abs="91058.289733" electricity_abs="0"/>
    </tripinfo>
    <tripinfo id="f_1_21.1" depart="16.00" departLane="G6G5_0" departPos="5.10" departSpeed="0.00" departDelay="0.00" arrival="122.00" arrivalLane="G4G3_0" arrivalPos="491.30" arrivalSpeed="14.54" duration="106.00" routeLength="1493.50" waitingTime="0.00" waitingCount="0" stopTime="0.00" timeLoss="7.24" rerouteNo="0" devices="tripinfo_f_1_21.1 emissions_f_1_21.1" vType="DEFAULT_VEHTYPE" speedFactor="1.09" vaporized="">
        <emissions CO_abs="2336.806922" CO2_abs="288539.701753" HC_abs="16.555351" PMx_abs="3.982533" NOx_abs="106.262980" fuel_abs="92031.021468" electricity_abs="0"/>
    </tripinfo>
    <tripinfo id="f_0_5.0" depart="0.00" departLane="D9D8_0" departPos="5.10" departSpeed="0.00" departDelay="0.00" arrival="123.00" arrivalLane="D7D6_0" arrivalPos="492.80" arrivalSpeed="12.44" duration="123.00" routeLength="1494.90" waitingTime="0.00" waitingCount="0" stopTime="0.00" timeLoss="8.23" rerouteNo="0" devices="tripinfo_f_0_5.0 emissions_f_0_5.0" vType="DEFAULT_VEHTYPE" speedFactor="0.94" vaporized="">
        <emissions CO_abs="2781.749088" CO2_abs="300835.143423" HC_abs="19.023716" PMx_abs="3.917492" NOx_abs="111.215970" fuel_abs="95953.160140" electricity_abs="0"/>
    </tripinfo>
    <tripinfo id="f_1_23.1" depart="12.00" departLane="H6H5_0" departPos="5.10" departSpeed="0.00" departDelay="0.00" arrival="123.00" arrivalLane="H4H3_0" arrivalPos="491.30" arrivalSpeed="13.84" duration="111.00" routeLength="1493.50" waitingTime="0.00" waitingCount="0" stopTime="0.00" timeLoss="8.88" rerouteNo="0" devices="tripinfo_f_1_23.1 emissions_f_1_23.1" vType="DEFAULT_VEHTYPE" speedFactor="1.06" vaporized="">
        <emissions CO_abs="2527.415830" CO2_abs="292798.210320" HC_abs="17.446136" PMx_abs="4.004736" NOx_abs="108.126884" fuel_abs="93389.387258" electricity_abs="0"/>
    </tripinfo>
    <tripinfo id="f_1_16.3" depart="12.00" departLane="D2D3_0" departPos="5.10" departSpeed="0.00" departDelay="1.00" arrival="124.00" arrivalLane="D4D5_0" arrivalPos="492.80" arrivalSpeed="14.28" duration="112.00" routeLength="1494.90" waitingTime="0.00" waitingCount="0" stopTime="0.00" timeLoss="7.69" rerouteNo="0" devices="tripinfo_f_1_16.3 emissions_f_1_16.3" vType="DEFAULT_VEHTYPE" speedFactor="1.04" vaporized="">
        <emissions CO_abs="2285.682745" CO2_abs="287440.602953" HC_abs="16.288158" PMx_abs="3.771632" NOx_abs="104.934474" fuel_abs="91680.656589" electricity_abs="0"/>
    </tripinfo>
    <tripinfo id="f_1_9.0" depart="1.00" departLane="G9G8_0" departPos="5.10" departSpeed="0.00" departDelay="0.00" arrival="125.00" arrivalLane="G7G6_0" arrivalPos="492.80" arrivalSpeed="12.67" duration="124.00" routeLength="1494.90" waitingTime="0.00" waitingCount="0" stopTime="0.00" timeLoss="8.41" rerouteNo="0" devices="tripinfo_f_1_9.0 emissions_f_1_9.0" vType="DEFAULT_VEHTYPE" speedFactor="0.94" vaporized="">
        <emissions CO_abs="2570.087797" CO2_abs="290161.572081" HC_abs="17.915017" PMx_abs="3.668620" NOx_abs="106.550165" fuel_abs="92548.818426" electricity_abs="0"/>
    </tripinfo>
    <tripinfo id="f_0_3.0" depart="9.00" departLane="C9C8_0" departPos="5.10" departSpeed="0.00" departDelay="0.00" arrival="126.00" arrivalLane="C7C6_0" arrivalPos="492.80" arrivalSpeed="13.86" duration="117.00" routeLength="1494.90" waitingTime="0.00" waitingCount="0" stopTime="0.00" timeLoss="8.76" rerouteNo="0" devices="tripinfo_f_0_3.0 emissions_f_0_3.0" vType="DEFAULT_VEHTYPE" speedFactor="1.00" vaporized="">
        <emissions CO_abs="2569.444523" CO2_abs="286648.674246" HC_abs="17.783837" PMx_abs="3.870577" NOx_abs="106.524829" fuel_abs="91428.089833" electricity_abs="0"/>
    </tripinfo>
    <tripinfo id="f_1_15.0" depart="2.00" departLane="C6C5_0" departPos="5.10" departSpeed="0.00" departDelay="0.00" arrival="127.00" arrivalLane="C4C3_0" arrivalPos="491.30" arrivalSpeed="12.28" duration="125.00" routeLength="1493.50" waitingTime="0.00" waitingCount="0" stopTime="0.00" timeLoss="9.38" rerouteNo="0" devices="tripinfo_f_1_15.0 emissions_f_1_15.0" vType="DEFAULT_VEHTYPE" speedFactor="0.94" vaporized="">
        <emissions CO_abs="2518.243335" CO2_abs="290602.601565" HC_abs="17.671089" PMx_abs="3.518764" NOx_abs="105.717423" fuel_abs="92689.637731" electricity_abs="0"/>
    </tripinfo>
    <tripinfo id="f_1_14.1" depart="4.00" departLane="C2C3_0" departPos="5.10" departSpeed="0.00" departDelay="2.00" arrival="128.00" arrivalLane="C4C5_0" arrivalPos="492.80" arrivalSpeed="12.81" duration="124.00" routeLength="1494.90" waitingTime="0.00" waitingCount="0" stopTime="0.00" timeLoss="9.08" rerouteNo="0" devices="tripinfo_f_1_14.1 emissions_f_1_14.1" vType="DEFAULT_VEHTYPE" speedFactor="0.94" vaporized="">
        <emissions CO_abs="2676.964882" CO2_abs="295201.789634" HC_abs="18.326646" PMx_abs="3.715574" NOx_abs="108.356220" fuel_abs="94156.458616" electricity_abs="0"/>
    </tripinfo>
    <tripinfo id="f_1_15.1" depart="12.00" departLane="C6C5_0" departPos="5.10" departSpeed="0.00" departDelay="0.00" arrival="128.00" arrivalLane="C4C3_0" arrivalPos="491.30" arrivalSpeed="13.89" duration="116.00" routeLength="1493.50" waitingTime="0.00" waitingCount="0" stopTime="0.00" timeLoss="10.80" rerouteNo="0" devices="tripinfo_f_1_15.1 emissions_f_1_15.1" vType="DEFAULT_VEHTYPE" speedFactor="1.02" vaporized="">
        <emissions CO_abs="3082.429482" CO2_abs="310634.215758" HC_abs="20.820163" PMx_abs="4.554509" NOx_abs="118.065389" fuel_abs="99078.171238" electricity_abs="0"/>
    </tripinfo>
    <tripinfo id="f_1_14.2" depart="9.00" departLane="C2C3_0" departPos="5.10" departSpeed="0.00" departDelay="0.00" arrival="130.00" arrivalLane="C4C5_0" arrivalPos="492.80" arrivalSpeed="15.08" duration="121.00" routeLength="1494.90" waitingTime="0.00" waitingCount="0" stopTime="0.00" timeLoss="25.92" rerouteNo="0" devices="tripinfo_f_1_14.2 emissions_f_1_14.2" vType="DEFAULT_VEHTYPE" speedFactor="1.14" vaporized="">
        <emissions CO_abs="3902.455109" CO2_abs="351167.511454" HC_abs="25.565926" PMx_abs="5.489999" NOx_abs="136.560470" fuel_abs="112006.265776" electricity_abs="0"/>
    </tripinfo>
    <tripinfo id="f_1_15.2" depart="15.00" departLane="C6C5_0" departPos="5.10" departSpeed="0.00" departDelay="0.00" arrival="130.00" arrivalLane="C4C3_0" arrivalPos="491.30" arrivalSpeed="13.22" duration="115.00" routeLength="1493.50" waitingTime="0.00" waitingCount="0" stopTime="0.00" timeLoss="11.50" rerouteNo="0" devices="tripinfo_f_1_15.2 emissions_f_1_15.2" vType="DEFAULT_VEHTYPE" speedFactor="1.04" vaporized="">
        <emissions CO_abs="3091.991286" CO2_abs="316902.904746" HC_abs="20.879507" PMx_abs="4.635656" NOx_abs="120.359021" fuel_abs="101077.565325" electricity_abs="0"/>
    </tripinfo>
    <tripinfo id="f_1_14.3" depart="15.00" departLane="C2C3_0" departPos="5.10" departSpeed="0.00" departDelay="0.00" arrival="131.00" arrivalLane="C4C5_0" arrivalPos="492.80" arrivalSpeed="12.96" duration="116.00" routeLength="1494.90" waitingTime="0.00" waitingCount="0" stopTime="0.00" timeLoss="8.46" rerouteNo="0" devices="tripinfo_f_1_14.3 emissions_f_1_14.3" vType="DEFAULT_VEHTYPE" speedFactor="1.00" vaporized="">
        <emissions CO_abs="2529.954108" CO2_abs="297874.747724" HC_abs="17.963721" PMx_abs="3.959751" NOx_abs="110.197088" fuel_abs="95008.714823" electricity_abs="0"/>
    </tripinfo>
    <tripinfo id="f_0_3.1" depart="12.00" departLane="C9C8_0" departPos="5.10" departSpeed="0.00" departDelay="2.00" arrival="132.00" arrivalLane="C7C6_0" arrivalPos="492.80" arrivalSpeed="12.56" duration="120.00" routeLength="1494.90" waitingTime="0.00" waitingCount="0" stopTime="0.00" timeLoss="8.14" rerouteNo="0" devices="tripinfo_f_0_3.1 emissions_f_0_3.1" vType="DEFAULT_VEHTYPE" speedFactor="0.97" vaporized="">
        <emissions CO_abs="2399.889590" CO2_abs="284046.203684" HC_abs="16.832962" PMx_abs="3.580611" NOx_abs="103.674459" fuel_abs="90598.239928" electricity_abs="0"/>
    </tripinfo>
    <tripinfo id="f_1_15.3" depart="20.00" departLane="C6C5_0" departPos="5.10" departSpeed="0.00" departDelay="0.00" arrival="132.00" arrivalLane="C4C3_0" arrivalPos="491.30" arrivalSpeed="14.25" duration="112.00" routeLength="1493.50" waitingTime="0.00" waitingCount="0" stopTime="0.00" timeLoss="10.20" rerouteNo="0" devices="tripinfo_f_1_15.3 emissions_f_1_15.3" vType="DEFAULT_VEHTYPE" speedFactor="1.06" vaporized="">
        <emissions CO_abs="2675.259453" CO2_abs="305536.301240" HC_abs="18.574602" PMx_abs="4.261960" NOx_abs="113.505471" fuel_abs="97452.236146" electricity_abs="0"/>
    </tripinfo>
    <tripinfo id="f_0_4.0" depart="3.00" departLane="D5D6_0" departPos="5.10" departSpeed="0.00" departDelay="0.00" arrival="133.00" arrivalLane="D7D8_0" arrivalPos="491.30" arrivalSpeed="12.19" duration="130.00" routeLength="1493.50" waitingTime="0.00" waitingCount="0" stopTime="0.00" timeLoss="9.12" rerouteNo="0" devices="tripinfo_f_0_4.0 emissions_f_0_4.0" vType="DEFAULT_VEHTYPE" speedFactor="0.89" vaporized="">
        <emissions CO_abs="2880.623604" CO2_abs="292729.178722" HC_abs="19.506642" PMx_abs="3.643759" NOx_abs="107.902772" fuel_abs="93367.997333" electricity_abs="0"/>
    </tripinfo>
    <tripinfo id="f_0_3.2" depart="15.00" departLane="C9C8_0" departPos="5.10" departSpeed="0.00" departDelay="2.00" arrival="133.00" arrivalLane="C7C6_0" arrivalPos="492.80" arrivalSpeed="12.88" duration="118.00" routeLength="1494.90" waitingTime="0.00" waitingCount="0" stopTime="0.00" timeLoss="8.50" rerouteNo="0" devices="tripinfo_f_0_3.2 emissions_f_0_3.2" vType="DEFAULT_VEHTYPE" speedFactor="0.98" vaporized="">
        <emissions CO_abs="2554.007310" CO2_abs="285211.870097" HC_abs="17.553327" PMx_abs="3.756643" NOx_abs="105.441847" fuel_abs="90969.901115" electricity_abs="0"/>
    </tripinfo>
    <tripinfo id="f_1_14.4" depart="18.00" departLane="C2C3_0" departPos="5.10" departSpeed="0.00" departDelay="0.00" arrival="133.00" arrivalLane="C4C5_0" arrivalPos="492.80" arrivalSpeed="14.55" duration="115.00" routeLength="1494.90" waitingTime="0.00" waitingCount="0" stopTime="0.00" timeLoss="18.53" rerouteNo="0" devices="tripinfo_f_1_14.4 emissions_f_1_14.4" vType="DEFAULT_VEHTYPE" speedFactor="1.12" vaporized="">
        <emissions CO_abs="3383.726847" CO2_abs="328678.862659" HC_abs="22.594871" PMx_abs="5.009725" NOx_abs="126.185717" fuel_abs="104833.434435" electricity_abs="0"/>
    </tripinfo>
    <tripinfo id="f_1_10.1" depart="10.00" departLane="H5H6_0" departPos="5.10" departSpeed="0.00" departDelay="0.00" arrival="134.00" arrivalLane="H7H8_0" arrivalPos="491.30" arrivalSpeed="11.81" duration="124.00" routeLength="1493.50" waitingTime="0.00" waitingCount="0" stopTime="0.00" timeLoss="9.19" rerouteNo="0" devices="tripinfo_f_1_10.1 emissions_f_1_10.1" vType="DEFAULT_VEHTYPE" speedFactor="0.94" vaporized="">
        <emissions CO_abs="2642.098258" CO2_abs="292388.291319" HC_abs="18.126032" PMx_abs="3.608622" NOx_abs="106.865267" fuel_abs="93259.155947" electricity_abs="0"/>
    </tripinfo>
    <tripinfo id="f_1_21.2" depart="19.00" departLane="G6G5_0" departPos="5.10" departSpeed="0.00" departDelay="2.00" arrival="134.00" arrivalLane="G4G3_0" arrivalPos="491.30" arrivalSpeed="13.41" duration="115.00" routeLength="1493.50" waitingTime="0.00" waitingCount="0" stopTime="0.00" timeLoss="8.21" rerouteNo="0" devices="tripinfo_f_1_21.2 emissions_f_1_21.2" vType="DEFAULT_VEHTYPE" speedFactor="1.01" vaporized="">
        <emissions CO_abs="2485.474729" CO2_abs="305554.167598" HC_abs="17.559090" PMx_abs="3.914574" NOx_abs="111.261540" fuel_abs="97458.203984" electricity_abs="0"/>
    </tripinfo>
    <tripinfo id="f_0_4.1" depart="6.00" departLane="D5D6_0" departPos="5.10" departSpeed="0.00" departDelay="0.00" arrival="135.00" arrivalLane="D7D8_0" arrivalPos="491.30" arrivalSpeed="13.62" duration="129.00" routeLength="1493.50" waitingTime="0.00" waitingCount="0" stopTime="0.00" timeLoss="23.22" rerouteNo="0" devices="tripinfo_f_0_4.1 emissions_f_0_4.1" vType="DEFAULT_VEHTYPE" speedFactor="1.02" vaporized="">
        <emissions CO_abs="3684.136063" CO2_abs="328836.394352" HC_abs="24.169065" PMx_abs="4.784838" NOx_abs="126.201319" fuel_abs="104884.102430" electricity_abs="0"/>
    </tripinfo>
    <tripinfo id="f_1_14.5" depart="21.00" departLane="C2C3_0" departPos="5.10" departSpeed="0.00" departDelay="1.00" arrival="135.00" arrivalLane="C4C5_0" arrivalPos="492.80" arrivalSpeed="14.28" duration="114.00" routeLength="1494.90" waitingTime="0.00" waitingCount="0" stopTime="0.00" timeLoss="9.31" rerouteNo="0" devices="tripinfo_f_1_14.5 emissions_f_1_14.5" vType="DEFAULT_VEHTYPE" speedFactor="1.03" vaporized="">
        <emissions CO_abs="3032.817217" CO2_abs="317725.512972" HC_abs="20.458964" PMx_abs="4.607157" NOx_abs="119.524487" fuel_abs="101339.953302" electricity_abs="0"/>
    </tripinfo>
    <tripinfo id="f_0_3.3" depart="24.00" departLane="C9C8_0" departPos="5.10" departSpeed="0.00" departDelay="0.00" arrival="135.00" arrivalLane="C7C6_0" arrivalPos="492.80" arrivalSpeed="13.63" duration="111.00" routeLength="1494.90" waitingTime="0.00" waitingCount="0" stopTime="0.00" timeLoss="8.98" rerouteNo="0" devices="tripinfo_f_0_3.3 emissions_f_0_3.3" vType="DEFAULT_VEHTYPE" speedFactor="1.06" vaporized="">
        <emissions CO_abs="2881.518814" CO2_abs="303031.936048" HC_abs="19.641478" PMx_abs="4.481473" NOx_abs="114.893972" fuel_abs="96653.275766" electricity_abs="0"/>
    </tripinfo>
    <tripinfo id="f_1_11.0" depart="1.00" departLane="H9H8_0" departPos="5.10" departSpeed="0.00" departDelay="0.00" arrival="136.00" arrivalLane="H7H6_0" arrivalPos="492.80" arrivalSpeed="11.29" duration="135.00" routeLength="1494.90" waitingTime="0.00" waitingCount="0" stopTime="0.00" timeLoss="8.92" rerouteNo="0" devices="tripinfo_f_1_11.0 emissions_f_1_11.0" vType="DEFAULT_VEHTYPE" speedFactor="0.86" vaporized="">
        <emissions CO_abs="3197.610268" CO2_abs="308384.394641" HC_abs="21.499304" PMx_abs="3.886409" NOx_abs="114.649924" fuel_abs="98361.350757" electricity_abs="0"/>
    </tripinfo>
    <tripinfo id="f_0_2.2" depart="7.00" departLane="C5C6_0" departPos="5.10" departSpeed="0.00" departDelay="0.00" arrival="136.00" arrivalLane="C7C8_0" arrivalPos="491.30" arrivalSpeed="11.66" duration="129.00" routeLength="1493.50" waitingTime="0.00" waitingCount="0" stopTime="0.00" timeLoss="9.17" rerouteNo="0" devices="tripinfo_f_0_2.2 emissions_f_0_2.2" vType="DEFAULT_VEHTYPE" speedFactor="0.90" vaporized="">
        <emissions CO_abs="2775.558757" CO2_abs="287237.329963" HC_abs="18.896391" PMx_abs="3.575123" NOx_abs="105.739670" fuel_abs="91616.304953" electricity_abs="0"/>
    </tripinfo>
    <tripinfo id="f_1_21.3" depart="22.00" departLane="G6G5_0" departPos="5.10" departSpeed="0.00" departDelay="4.00" arrival="136.00" arrivalLane="G4G3_0" arrivalPos="491.30" arrivalSpeed="14.30" duration="114.00" routeLength="1493.50" waitingTime="0.00" waitingCount="0" stopTime="0.00" timeLoss="15.29" rerouteNo="0" devices="tripinfo_f_1_21.3 emissions_f_1_21.3" vType="DEFAULT_VEHTYPE" speedFactor="1.10" vaporized="">
        <emissions CO_abs="3049.388589" CO2_abs="320504.807280" HC_abs="20.561408" PMx_abs="4.617797" NOx_abs="120.171976" fuel_abs="102226.470694" electricity_abs="0"/>
    </tripinfo>
    <tripinfo id="f_1_9.1" depart="4.00" departLane="G9G8_0" departPos="5.10" departSpeed="0.00" departDelay="1.00" arrival="137.00" arrivalLane="G7G6_0" arrivalPos="492.80" arrivalSpeed="11.89" duration="133.00" routeLength="1494.90" waitingTime="0.00" waitingCount="0" stopTime="0.00" timeLoss="8.95" rerouteNo="0" devices="tripinfo_f_1_9.1 emissions_f_1_9.1" vType="DEFAULT_VEHTYPE" speedFactor="0.87" vaporized="">
        <emissions CO_abs="3126.934714" CO2_abs="303952.083312" HC_abs="20.964376" PMx_abs="3.905447" NOx_abs="113.141450" fuel_abs="96947.554883" electricity_abs="0"/>
    </tripinfo>
    <tripinfo id="f_0_4.2" depart="9.00" departLane="D5D6_0" departPos="5.10" departSpeed="0.00" departDelay="2.00" arrival="137.00" arrivalLane="D7D8_0" arrivalPos="491.30" arrivalSpeed="14.01" duration="128.00" routeLength="1493.50" waitingTime="0.00" waitingCount="0" stopTime="0.00" timeLoss="22.97" rerouteNo="0" devices="tripinfo_f_0_4.2 emissions_f_0_4.2" vType="DEFAULT_VEHTYPE" speedFactor="1.03" vaporized="">
        <emissions CO_abs="4534.739585" CO2_abs="373194.000455" HC_abs="29.176860" PMx_abs="6.026700" NOx_abs="147.620187" fuel_abs="119031.697022" electricity_abs="0"/>
    </tripinfo>
    <tripinfo id="f_1_9.2" depart="7.00" departLane="G9G8_0" departPos="5.10" departSpeed="0.00" departDelay="3.00" arrival="139.00" arrivalLane="G7G6_0" arrivalPos="492.80" arrivalSpeed="12.42" duration="132.00" routeLength="1494.90" waitingTime="0.00" waitingCount="0" stopTime="0.00" timeLoss="17.70" rerouteNo="0" devices="tripinfo_f_1_9.2 emissions_f_1_9.2" vType="DEFAULT_VEHTYPE" speedFactor="0.95" vaporized="">
        <emissions CO_abs="3923.154024" CO2_abs="332879.790491" HC_abs="25.493970" PMx_abs="4.991914" NOx_abs="129.255702" fuel_abs="106173.697297" electricity_abs="0"/>
    </tripinfo>
    <tripinfo id="f_0_2.3" depart="10.00" departLane="C5C6_0" departPos="5.10" departSpeed="0.00" departDelay="2.00" arrival="139.00" arrivalLane="C7C8_0" arrivalPos="491.30" arrivalSpeed="11.38" duration="129.00" routeLength="1493.50" waitingTime="0.00" waitingCount="0" stopTime="0.00" timeLoss="9.08" rerouteNo="0" devices="tripinfo_f_0_2.3 emissions_f_0_2.3" vType="DEFAULT_VEHTYPE" speedFactor="0.90" vaporized="">
        <emissions CO_abs="2850.692721" CO2_abs="292919.784350" HC_abs="19.406876" PMx_abs="3.715929" NOx_abs="108.310577" fuel_abs="93428.693800" electricity_abs="0"/>
    </tripinfo>
    <tripinfo id="f_1_20.0" depart="0.00" departLane="G2G3_0" departPos="5.10" departSpeed="0.00" departDelay="0.00" arrival="140.00" arrivalLane="G4G5_0" arrivalPos="492.80" arrivalSpeed="11.44" duration="140.00" routeLength="1494.90" waitingTime="0.00" waitingCount="0" stopTime="0.00" timeLoss="9.65" rerouteNo="0" devices="tripinfo_f_1_20.0 emissions_f_1_20.0" vType="DEFAULT_VEHTYPE" speedFactor="0.83" vaporized="">
        <emissions CO_abs="3422.131748" CO2_abs="304757.145212" HC_abs="22.471942" PMx_abs="3.876634" NOx_abs="113.845517" fuel_abs="97204.527905" electricity_abs="0"/>
    </tripinfo>
    <tripinfo id="f_1_9.3" depart="10.00" departLane="G9G8_0" departPos="5.10" departSpeed="0.00" departDelay="4.00" arrival="140.00" arrivalLane="G7G6_0" arrivalPos="492.80" arrivalSpeed="13.50" duration="130.00" routeLength="1494.90" waitingTime="0.00" waitingCount="0" stopTime="0.00" timeLoss="19.17" rerouteNo="0" devices="tripinfo_f_1_9.3 emissions_f_1_9.3" vType="DEFAULT_VEHTYPE" speedFactor="0.97" vaporized="">
        <emissions CO_abs="4134.758139" CO2_abs="345763.506376" HC_abs="26.525794" PMx_abs="5.316009" NOx_abs="134.880771" fuel_abs="110282.888497" electricity_abs="0"/>
    </tripinfo>
    <tripinfo id="f_1_10.2" depart="13.00" departLane="H5H6_0" departPos="5.10" departSpeed="0.00" departDelay="2.00" arrival="140.00" arrivalLane="H7H8_0" arrivalPos="491.30" arrivalSpeed="12.04" duration="127.00" routeLength="1493.50" waitingTime="0.00" waitingCount="0" stopTime="0.00" timeLoss="9.11" rerouteNo="0" devices="tripinfo_f_1_10.2 emissions_f_1_10.2" vType="DEFAULT_VEHTYPE" speedFactor="0.91" vaporized="">
        <emissions CO_abs="2832.628179" CO2_abs="288223.293616" HC_abs="19.290868" PMx_abs="3.781803" NOx_abs="107.518104" fuel_abs="91930.582028" electricity_abs="0"/>
    </tripinfo>
    <tripinfo id="f_1_20.1" depart="3.00" departLane="G2G3_0" departPos="5.10" departSpeed="0.00" departDelay="2.00" arrival="141.00" arrivalLane="G4G5_0" arrivalPos="492.80" arrivalSpeed="12.32" duration="138.00" routeLength="1494.90" waitingTime="0.00" waitingCount="0" stopTime="0.00" timeLoss="42.07" rerouteNo="0" devices="tripinfo_f_1_20.1 emissions_f_1_20.1" vType="DEFAULT_VEHTYPE" speedFactor="1.12" vaporized="">
        <emissions CO_abs="4409.236094" CO2_abs="341064.727336" HC_abs="27.951286" PMx_abs="5.201382" NOx_abs="133.713786" fuel_abs="108784.421254" electricity_abs="0"/>
    </tripinfo>
    <tripinfo id="f_0_2.4" depart="13.00" departLane="C5C6_0" departPos="5.10" departSpeed="0.00" departDelay="0.00" arrival="141.00" arrivalLane="C7C8_0" arrivalPos="491.30" arrivalSpeed="12.51" duration="128.00" routeLength="1493.50" waitingTime="0.00" waitingCount="0" stopTime="0.00" timeLoss="14.63" rerouteNo="0" devices="tripinfo_f_0_2.4 emissions_f_0_2.4" vType="DEFAULT_VEHTYPE" speedFactor="0.96" vaporized="">
        <emissions CO_abs="3427.057715" CO2_abs="312534.901452" HC_abs="22.581167" PMx_abs="4.519403" NOx_abs="119.668460" fuel_abs="99684.642004" electricity_abs="0"/>
    </tripinfo>
    <tripinfo id="f_1_10.3" depart="16.00" departLane="H5H6_0" departPos="5.10" departSpeed="0.00" departDelay="0.00" arrival="142.00" arrivalLane="H7H8_0" arrivalPos="491.30" arrivalSpeed="13.32" duration="126.00" routeLength="1493.50" waitingTime="0.00" waitingCount="0" stopTime="0.00" timeLoss="20.12" rerouteNo="0" devices="tripinfo_f_1_10.3 emissions_f_1_10.3" vType="DEFAULT_VEHTYPE" speedFactor="1.02" vaporized="">
        <emissions CO_abs="3912.172907" CO2_abs="341026.219626" HC_abs="25.616298" PMx_abs="5.257527" NOx_abs="133.097897" fuel_abs="108771.809306" electricity_abs="0"/>
    </tripinfo>
    <tripinfo id="f_0_2.5" depart="19.00" departLane="C5C6_0" departPos="5.10" departSpeed="0.00" departDelay="0.00" arrival="142.00" arrivalLane="C7C8_0" arrivalPos="491.30" arrivalSpeed="12.56" duration="123.00" routeLength="1493.50" waitingTime="0.00" waitingCount="0" stopTime="0.00" timeLoss="10.53" rerouteNo="0" devices="tripinfo_f_0_2.5 emissions_f_0_2.5" vType="DEFAULT_VEHTYPE" speedFactor="0.96" vaporized="">