<?xml version="1.0" encoding="UTF-8"?>

<!-- generated on 2024-08-22 13:35:32 by Eclipse SUMO sumo Version 1.17.0
<configuration xmlns:xsi="http://www.w3.org/2001/XMLSchema-instance" xsi:noNamespaceSchemaLocation="http://sumo.dlr.de/xsd/sumoConfiguration.xsd">

    <input>
        <net-file value="double_static.net.xml"/>
        <route-files value="double_4.rou.xml"/>
    </input>

    <output>
        <tripinfo-output value="emissions_test\z_static_4_emissions_tripinfo_double.xml"/>
    </output>

    <processing>
        <time-to-teleport value="-1"/>
    </processing>

    <emissions>
        <device.emissions.probability value="1.0"/>
    </emissions>

    <traci_server>
        <remote-port value="58209"/>
    </traci_server>

</configuration>
-->

<tripinfos xmlns:xsi="http://www.w3.org/2001/XMLSchema-instance" xsi:noNamespaceSchemaLocation="http://sumo.dlr.de/xsd/tripinfo_file.xsd">
    <tripinfo id="f_1_21.0" depart="4.00" departLane="G6G5_0" departPos="5.10" departSpeed="0.00" departDelay="0.00" arrival="125.00" arrivalLane="G4G3_0" arrivalPos="491.30" arrivalSpeed="15.94" duration="121.00" routeLength="1493.50" waitingTime="17.00" waitingCount="1" stopTime="0.00" timeLoss="28.94" rerouteNo="0" devices="tripinfo_f_1_21.0 emissions_f_1_21.0" vType="DEFAULT_VEHTYPE" speedFactor="1.18" vaporized="">
        <emissions CO_abs="6296.863013" CO2_abs="375904.901874" HC_abs="36.528477" PMx_abs="6.304542" NOx_abs="146.394531" fuel_abs="119897.225779" electricity_abs="0"/>
    </tripinfo>
    <tripinfo id="f_1_17.0" depart="5.00" departLane="D6D5_0" departPos="5.10" departSpeed="0.00" departDelay="0.00" arrival="125.00" arrivalLane="D4D3_0" arrivalPos="491.30" arrivalSpeed="15.89" duration="120.00" routeLength="1493.50" waitingTime="13.00" waitingCount="1" stopTime="0.00" timeLoss="28.18" rerouteNo="0" devices="tripinfo_f_1_17.0 emissions_f_1_17.0" vType="DEFAULT_VEHTYPE" speedFactor="1.17" vaporized="">
        <emissions CO_abs="5634.459282" CO2_abs="366206.899145" HC_abs="33.101759" PMx_abs="5.837531" NOx_abs="140.193765" fuel_abs="116804.031664" electricity_abs="0"/>
    </tripinfo>
    <tripinfo id="f_1_10.0" depart="0.00" departLane="H5H6_0" departPos="5.10" departSpeed="0.00" departDelay="0.00" arrival="128.00" arrivalLane="H7H8_0" arrivalPos="491.30" arrivalSpeed="14.59" duration="128.00" routeLength="1493.50" waitingTime="15.00" waitingCount="1" stopTime="0.00" timeLoss="27.94" rerouteNo="0" devices="tripinfo_f_1_10.0 emissions_f_1_10.0" vType="DEFAULT_VEHTYPE" speedFactor="1.08" vaporized="">
        <emissions CO_abs="5720.400877" CO2_abs="360155.398375" HC_abs="33.613386" PMx_abs="5.677254" NOx_abs="139.062483" fuel_abs="114874.032412" electricity_abs="0"/>
    </tripinfo>
    <tripinfo id="f_1_14.0" depart="1.00" departLane="C2C3_0" departPos="5.10" departSpeed="0.00" departDelay="0.00" arrival="128.00" arrivalLane="C4C5_0" arrivalPos="492.80" arrivalSpeed="15.13" duration="127.00" routeLength="1494.90" waitingTime="13.00" waitingCount="1" stopTime="0.00" timeLoss="27.59" rerouteNo="0" devices="tripinfo_f_1_14.0 emissions_f_1_14.0" vType="DEFAULT_VEHTYPE" speedFactor="1.09" vaporized="">
        <emissions CO_abs="5433.441944" CO2_abs="355927.060837" HC_abs="32.056260" PMx_abs="5.396850" NOx_abs="135.105430" fuel_abs="113525.513725" electricity_abs="0"/>
    </tripinfo>
    <tripinfo id="f_0_2.0" depart="0.00" departLane="C5C6_0" departPos="5.10" departSpeed="0.00" departDelay="0.00" arrival="129.00" arrivalLane="C7C8_0" arrivalPos="491.30" arrivalSpeed="14.67" duration="129.00" routeLength="1493.50" waitingTime="14.00" waitingCount="1" stopTime="0.00" timeLoss="26.90" rerouteNo="0" devices="tripinfo_f_0_2.0 emissions_f_0_2.0" vType="DEFAULT_VEHTYPE" speedFactor="1.06" vaporized="">
        <emissions CO_abs="5710.100103" CO2_abs="364013.871100" HC_abs="33.727832" PMx_abs="5.741956" NOx_abs="140.625364" fuel_abs="116104.691386" electricity_abs="0"/>
    </tripinfo>
    <tripinfo id="f_1_21.1" depart="16.00" departLane="G6G5_0" departPos="5.10" departSpeed="0.00" departDelay="0.00" arrival="129.00" arrivalLane="G4G3_0" arrivalPos="491.30" arrivalSpeed="13.89" duration="113.00" routeLength="1493.50" waitingTime="0.00" waitingCount="0" stopTime="0.00" timeLoss="14.08" rerouteNo="0" devices="tripinfo_f_1_21.1 emissions_f_1_21.1" vType="DEFAULT_VEHTYPE" speedFactor="1.09" vaporized="">
        <emissions CO_abs="3527.624300" CO2_abs="326508.095692" HC_abs="22.997849" PMx_abs="4.895747" NOx_abs="123.616227" fuel_abs="104141.298038" electricity_abs="0"/>
    </tripinfo>
    <tripinfo id="f_1_16.0" depart="0.00" departLane="D2D3_0" departPos="5.10" departSpeed="0.00" departDelay="0.00" arrival="130.00" arrivalLane="D4D5_0" arrivalPos="492.80" arrivalSpeed="13.83" duration="130.00" routeLength="1494.90" waitingTime="11.00" waitingCount="1" stopTime="0.00" timeLoss="24.89" rerouteNo="0" devices="tripinfo_f_1_16.0 emissions_f_1_16.0" vType="DEFAULT_VEHTYPE" speedFactor="1.03" vaporized="">
        <emissions CO_abs="5515.890517" CO2_abs="360810.696748" HC_abs="32.830545" PMx_abs="5.669753" NOx_abs="139.838380" fuel_abs="115082.933185" electricity_abs="0"/>
    </tripinfo>
    <tripinfo id="f_0_3.0" depart="9.00" departLane="C9C8_0" departPos="5.10" departSpeed="0.00" departDelay="0.00" arrival="130.00" arrivalLane="C7C6_0" arrivalPos="492.80" arrivalSpeed="12.78" duration="121.00" routeLength="1494.90" waitingTime="0.00" waitingCount="0" stopTime="0.00" timeLoss="13.69" rerouteNo="0" devices="tripinfo_f_0_3.0 emissions_f_0_3.0" vType="DEFAULT_VEHTYPE" speedFactor="1.00" vaporized="">
        <emissions CO_abs="3411.512902" CO2_abs="309400.525757" HC_abs="22.286117" PMx_abs="4.592541" NOx_abs="118.601443" fuel_abs="98684.794703" electricity_abs="0"/>
    </tripinfo>
    <tripinfo id="f_1_23.0" depart="5.00" departLane="H6H5_0" departPos="5.10" departSpeed="0.00" departDelay="0.00" arrival="131.00" arrivalLane="H4H3_0" arrivalPos="491.30" arrivalSpeed="13.00" duration="126.00" routeLength="1493.50" waitingTime="4.00" waitingCount="1" stopTime="0.00" timeLoss="17.37" rerouteNo="0" devices="tripinfo_f_1_23.0 emissions_f_1_23.0" vType="DEFAULT_VEHTYPE" speedFactor="0.99" vaporized="">
        <emissions CO_abs="3846.372755" CO2_abs="315163.917115" HC_abs="24.131617" PMx_abs="4.535180" NOx_abs="119.359760" fuel_abs="100523.462071" electricity_abs="0"/>
    </tripinfo>
    <tripinfo id="f_1_16.1" depart="6.00" departLane="D2D3_0" departPos="5.10" departSpeed="0.00" departDelay="0.00" arrival="131.00" arrivalLane="D4D5_0" arrivalPos="492.80" arrivalSpeed="14.56" duration="125.00" routeLength="1494.90" waitingTime="10.00" waitingCount="1" stopTime="0.00" timeLoss="27.35" rerouteNo="0" devices="tripinfo_f_1_16.1 emissions_f_1_16.1" vType="DEFAULT_VEHTYPE" speedFactor="1.10" vaporized="">
        <emissions CO_abs="5217.867396" CO2_abs="350902.673126" HC_abs="30.964907" PMx_abs="5.353390" NOx_abs="133.533557" fuel_abs="111922.828296" electricity_abs="0"/>
    </tripinfo>
    <tripinfo id="f_1_17.1" depart="8.00" departLane="D6D5_0" departPos="5.10" departSpeed="0.00" departDelay="1.00" arrival="131.00" arrivalLane="D4D3_0" arrivalPos="491.30" arrivalSpeed="13.60" duration="123.00" routeLength="1493.50" waitingTime="7.00" waitingCount="1" stopTime="0.00" timeLoss="19.55" rerouteNo="0" devices="tripinfo_f_1_17.1 emissions_f_1_17.1" vType="DEFAULT_VEHTYPE" speedFactor="1.04" vaporized="">
        <emissions CO_abs="4330.011254" CO2_abs="341573.464469" HC_abs="26.646861" PMx_abs="4.930340" NOx_abs="128.266089" fuel_abs="108947.045373" electricity_abs="0"/>
    </tripinfo>
    <tripinfo id="f_0_5.0" depart="0.00" departLane="D9D8_0" departPos="5.10" departSpeed="0.00" departDelay="0.00" arrival="133.00" arrivalLane="D7D6_0" arrivalPos="492.80" arrivalSpeed="12.49" duration="133.00" routeLength="1494.90" waitingTime="4.00" waitingCount="1" stopTime="0.00" timeLoss="18.12" rerouteNo="0" devices="tripinfo_f_0_5.0 emissions_f_0_5.0" vType="DEFAULT_VEHTYPE" speedFactor="0.94" vaporized="">
        <emissions CO_abs="4349.244482" CO2_abs="336158.116710" HC_abs="26.940865" PMx_abs="4.799990" NOx_abs="127.560084" fuel_abs="107219.891176" electricity_abs="0"/>
    </tripinfo>
    <tripinfo id="f_1_15.0" depart="2.00" departLane="C6C5_0" departPos="5.10" departSpeed="0.00" departDelay="0.00" arrival="133.00" arrivalLane="C4C3_0" arrivalPos="491.30" arrivalSpeed="12.88" duration="131.00" routeLength="1493.50" waitingTime="0.00" waitingCount="0" stopTime="0.00" timeLoss="15.47" rerouteNo="0" devices="tripinfo_f_1_15.0 emissions_f_1_15.0" vType="DEFAULT_VEHTYPE" speedFactor="0.94" vaporized="">
        <emissions CO_abs="3641.358340" CO2_abs="326698.913172" HC_abs="23.527838" PMx_abs="4.245045" NOx_abs="121.190332" fuel_abs="104202.936266" electricity_abs="0"/>
    </tripinfo>
    <tripinfo id="f_1_16.2" depart="9.00" departLane="D2D3_0" departPos="5.10" departSpeed="0.00" departDelay="2.00" arrival="133.00" arrivalLane="D4D5_0" arrivalPos="492.80" arrivalSpeed="14.25" duration="124.00" routeLength="1494.90" waitingTime="5.00" waitingCount="1" stopTime="0.00" timeLoss="20.12" rerouteNo="0" devices="tripinfo_f_1_16.2 emissions_f_1_16.2" vType="DEFAULT_VEHTYPE" speedFactor="1.04" vaporized="">
        <emissions CO_abs="4350.721027" CO2_abs="339119.400458" HC_abs="26.602721" PMx_abs="4.880405" NOx_abs="127.571034" fuel_abs="108164.304577" electricity_abs="0"/>
    </tripinfo>
    <tripinfo id="f_1_17.2" depart="11.00" departLane="D6D5_0" departPos="5.10" departSpeed="0.00" departDelay="3.00" arrival="133.00" arrivalLane="D4D3_0" arrivalPos="491.30" arrivalSpeed="15.43" duration="122.00" routeLength="1493.50" waitingTime="6.00" waitingCount="1" stopTime="0.00" timeLoss="29.24" rerouteNo="0" devices="tripinfo_f_1_17.2 emissions_f_1_17.2" vType="DEFAULT_VEHTYPE" speedFactor="1.17" vaporized="">
        <emissions CO_abs="5267.680583" CO2_abs="376523.229069" HC_abs="32.227484" PMx_abs="6.208801" NOx_abs="147.897978" fuel_abs="120093.917592" electricity_abs="0"/>
    </tripinfo>
    <tripinfo id="f_1_23.1" depart="12.00" departLane="H6H5_0" departPos="5.10" departSpeed="0.00" departDelay="0.00" arrival="133.00" arrivalLane="H4H3_0" arrivalPos="491.30" arrivalSpeed="14.26" duration="121.00" routeLength="1493.50" waitingTime="2.00" waitingCount="1" stopTime="0.00" timeLoss="18.30" rerouteNo="0" devices="tripinfo_f_1_23.1 emissions_f_1_23.1" vType="DEFAULT_VEHTYPE" speedFactor="1.06" vaporized="">
        <emissions CO_abs="4331.702515" CO2_abs="346765.866608" HC_abs="27.145062" PMx_abs="5.360312" NOx_abs="133.548997" fuel_abs="110602.727418" electricity_abs="0"/>
    </tripinfo>
    <tripinfo id="f_1_9.0" depart="1.00" departLane="G9G8_0" departPos="5.10" departSpeed="0.00" departDelay="0.00" arrival="134.00" arrivalLane="G7G6_0" arrivalPos="492.80" arrivalSpeed="11.77" duration="133.00" routeLength="1494.90" waitingTime="3.00" waitingCount="1" stopTime="0.00" timeLoss="17.78" rerouteNo="0" devices="tripinfo_f_1_9.0 emissions_f_1_9.0" vType="DEFAULT_VEHTYPE" speedFactor="0.94" vaporized="">
        <emissions CO_abs="4113.312743" CO2_abs="326271.744257" HC_abs="25.657547" PMx_abs="4.495718" NOx_abs="122.681921" fuel_abs="104066.692632" electricity_abs="0"/>
    </tripinfo>
    <tripinfo id="f_0_2.1" depart="3.00" departLane="C5C6_0" departPos="5.10" departSpeed="0.00" departDelay="0.00" arrival="134.00" arrivalLane="C7C8_0" arrivalPos="491.30" arrivalSpeed="13.36" duration="131.00" routeLength="1493.50" waitingTime="6.00" waitingCount="1" stopTime="0.00" timeLoss="20.42" rerouteNo="0" devices="tripinfo_f_0_2.1 emissions_f_0_2.1" vType="DEFAULT_VEHTYPE" speedFactor="0.97" vaporized="">
        <emissions CO_abs="4375.384165" CO2_abs="335478.773763" HC_abs="27.074167" PMx_abs="4.757539" NOx_abs="126.784540" fuel_abs="107003.283150" electricity_abs="0"/>
    </tripinfo>
    <tripinfo id="f_0_4.0" depart="3.00" departLane="D5D6_0" departPos="5.10" departSpeed="0.00" departDelay="0.00" arrival="134.00" arrivalLane="D7D8_0" arrivalPos="491.30" arrivalSpeed="11.19" duration="131.00" routeLength="1493.50" waitingTime="0.00" waitingCount="0" stopTime="0.00" timeLoss="9.41" rerouteNo="0" devices="tripinfo_f_0_4.0 emissions_f_0_4.0" vType="DEFAULT_VEHTYPE" speedFactor="0.89" vaporized="">
        <emissions CO_abs="2788.192506" CO2_abs="286819.852176" HC_abs="18.911098" PMx_abs="3.501332" NOx_abs="105.183813" fuel_abs="91483.239675" electricity_abs="0"/>
    </tripinfo>
    <tripinfo id="f_0_3.1" depart="12.00" departLane="C9C8_0" departPos="5.10" departSpeed="0.00" departDelay="2.00" arrival="134.00" arrivalLane="C7C6_0" arrivalPos="492.80" arrivalSpeed="13.03" duration="122.00" routeLength="1494.90" waitingTime="0.00" waitingCount="0" stopTime="0.00" timeLoss="10.24" rerouteNo="0" devices="tripinfo_f_0_3.1 emissions_f_0_3.1" vType="DEFAULT_VEHTYPE" speedFactor="0.97" vaporized="">
        <emissions CO_abs="2685.212401" CO2_abs="300383.279422" HC_abs="18.596227" PMx_abs="3.853370" NOx_abs="110.340618" fuel_abs="95809.058385" electricity_abs="0"/>
    </tripinfo>
    <tripinfo id="f_1_21.2" depart="19.00" departLane="G6G5_0" departPos="5.10" departSpeed="0.00" departDelay="2.00" arrival="134.00" arrivalLane="G4G3_0" arrivalPos="491.30" arrivalSpeed="13.84" duration="115.00" routeLength="1493.50" waitingTime="0.00" waitingCount="0" stopTime="0.00" timeLoss="7.66" rerouteNo="0" devices="tripinfo_f_1_21.2 emissions_f_1_21.2" vType="DEFAULT_VEHTYPE" speedFactor="1.01" vaporized="">
        <emissions CO_abs="2401.568758" CO2_abs="291086.804599" HC_abs="16.762008" PMx_abs="3.733684" NOx_abs="106.204507" fuel_abs="92843.728130" electricity_abs="0"/>
    </tripinfo>
    <tripinfo id="f_1_14.1" depart="4.00" departLane="C2C3_0" departPos="5.10" departSpeed="0.00" departDelay="2.00" arrival="135.00" arrivalLane="C4C5_0" arrivalPos="492.80" arrivalSpeed="12.02" duration="131.00" routeLength="1494.90" waitingTime="2.00" waitingCount="1" stopTime="0.00" timeLoss="16.65" rerouteNo="0" devices="tripinfo_f_1_14.1 emissions_f_1_14.1" vType="DEFAULT_VEHTYPE" speedFactor="0.94" vaporized="">
        <emissions CO_abs="4010.930086" CO2_abs="325990.836628" HC_abs="25.224281" PMx_abs="4.562730" NOx_abs="123.462945" fuel_abs="103976.915059" electricity_abs="0"/>
    </tripinfo>
    <tripinfo id="f_0_4.1" depart="6.00" departLane="D5D6_0" departPos="5.10" departSpeed="0.00" departDelay="0.00" arrival="135.00" arrivalLane="D7D8_0" arrivalPos="491.30" arrivalSpeed="11.90" duration="129.00" routeLength="1493.50" waitingTime="0.00" waitingCount="0" stopTime="0.00" timeLoss="23.56" rerouteNo="0" devices="tripinfo_f_0_4.1 emissions_f_0_4.1" vType="DEFAULT_VEHTYPE" speedFactor="1.02" vaporized="">
        <emissions CO_abs="3724.774073" CO2_abs="327115.661919" HC_abs="24.390144" PMx_abs="4.817710" NOx_abs="126.141722" fuel_abs="104335.221542" electricity_abs="0"/>
    </tripinfo>
    <tripinfo id="f_1_10.1" depart="10.00" departLane="H5H6_0" departPos="5.10" departSpeed="0.00" departDelay="0.00" arrival="135.00" arrivalLane="H7H8_0" arrivalPos="491.30" arrivalSpeed="11.73" duration="125.00" routeLength="1493.50" waitingTime="0.00" waitingCount="0" stopTime="0.00" timeLoss="9.80" rerouteNo="0" devices="tripinfo_f_1_10.1 emissions_f_1_10.1" vType="DEFAULT_VEHTYPE" speedFactor="0.94" vaporized="">
        <emissions CO_abs="2869.328704" CO2_abs="303950.084156" HC_abs="19.690510" PMx_abs="3.933439" NOx_abs="112.733387" fuel_abs="96946.730185" electricity_abs="0"/>
    </tripinfo>
    <tripinfo id="f_1_16.3" depart="12.00" departLane="D2D3_0" departPos="5.10" departSpeed="0.00" departDelay="1.00" arrival="135.00" arrivalLane="D4D5_0" arrivalPos="492.80" arrivalSpeed="14.06" duration="123.00" routeLength="1494.90" waitingTime="4.00" waitingCount="1" stopTime="0.00" timeLoss="19.46" rerouteNo="0" devices="tripinfo_f_1_16.3 emissions_f_1_16.3" vType="DEFAULT_VEHTYPE" speedFactor="1.04" vaporized="">
        <emissions CO_abs="4048.375227" CO2_abs="324098.991797" HC_abs="25.439343" PMx_abs="4.852386" NOx_abs="123.383931" fuel_abs="103373.247159" electricity_abs="0"/>
    </tripinfo>
    <tripinfo id="f_1_15.1" depart="12.00" departLane="C6C5_0" departPos="5.10" departSpeed="0.00" departDelay="0.00" arrival="135.00" arrivalLane="C4C3_0" arrivalPos="491.30" arrivalSpeed="12.91" duration="123.00" routeLength="1493.50" waitingTime="0.00" waitingCount="0" stopTime="0.00" timeLoss="17.03" rerouteNo="0" devices="tripinfo_f_1_15.1 emissions_f_1_15.1" vType="DEFAULT_VEHTYPE" speedFactor="1.02" vaporized="">
        <emissions CO_abs="4053.645847" CO2_abs="333192.520455" HC_abs="25.865833" PMx_abs="5.249542" NOx_abs="129.764730" fuel_abs="106273.266246" electricity_abs="0"/>
    </tripinfo>
    <tripinfo id="f_0_3.2" depart="15.00" departLane="C9C8_0" departPos="5.10" departSpeed="0.00" departDelay="2.00" arrival="135.00" arrivalLane="C7C6_0" arrivalPos="492.80" arrivalSpeed="12.58" duration="120.00" routeLength="1494.90" waitingTime="0.00" waitingCount="0" stopTime="0.00" timeLoss="10.69" rerouteNo="0" devices="tripinfo_f_0_3.2 emissions_f_0_3.2" vType="DEFAULT_VEHTYPE" speedFactor="0.98" vaporized="">
        <emissions CO_abs="2861.231603" CO2_abs="304649.745086" HC_abs="19.418498" PMx_abs="4.064981" NOx_abs="113.231145" fuel_abs="97169.737851" electricity_abs="0"/>
    </tripinfo>
    <tripinfo id="f_1_21.3" depart="22.00" departLane="G6G5_0" departPos="5.10" departSpeed="0.00" departDelay="4.00" arrival="135.00" arrivalLane="G4G3_0" arrivalPos="491.30" arrivalSpeed="14.82" duration="113.00" routeLength="1493.50" waitingTime="0.00" waitingCount="0" stopTime="0.00" timeLoss="14.78" rerouteNo="0" devices="tripinfo_f_1_21.3 emissions_f_1_21.3" vType="DEFAULT_VEHTYPE" speedFactor="1.10" vaporized="">
        <emissions CO_abs="3141.912103" CO2_abs="319277.027468" HC_abs="21.163161" PMx_abs="4.771758" NOx_abs="121.433227" fuel_abs="101834.726419" electricity_abs="0"/>
    </tripinfo>
    <tripinfo id="f_1_11.0" depart="1.00" departLane="H9H8_0" departPos="5.10" departSpeed="0.00" departDelay="0.00" arrival="136.00" arrivalLane="H7H6_0" arrivalPos="492.80" arrivalSpeed="11.67" duration="135.00" routeLength="1494.90" waitingTime="0.00" waitingCount="0" stopTime="0.00" timeLoss="9.07" rerouteNo="0" devices="tripinfo_f_1_11.0 emissions_f_1_11.0" vType="DEFAULT_VEHTYPE" speedFactor="0.86" vaporized="">
        <emissions CO_abs="3186.058740" CO2_abs="301408.831933" HC_abs="21.251804" PMx_abs="3.857325" NOx_abs="112.410321" fuel_abs="96136.422235" electricity_abs="0"/>
    </tripinfo>
    <tripinfo id="f_1_15.2" depart="15.00" departLane="C6C5_0" departPos="5.10" departSpeed="0.00" departDelay="0.00" arrival="136.00" arrivalLane="C4C3_0" arrivalPos="491.30" arrivalSpeed="13.43" duration="121.00" routeLength="1493.50" waitingTime="0.00" waitingCount="0" stopTime="0.00" timeLoss="17.67" rerouteNo="0" devices="tripinfo_f_1_15.2 emissions_f_1_15.2" vType="DEFAULT_VEHTYPE" speedFactor="1.04" vaporized="">
        <emissions CO_abs="4140.663849" CO2_abs="350240.855684" HC_abs="26.511952" PMx_abs="5.542799" NOx_abs="136.433491" fuel_abs="111710.786110" electricity_abs="0"/>
    </tripinfo>
    <tripinfo id="f_0_4.2" depart="9.00" departLane="D5D6_0" departPos="5.10" departSpeed="0.00" departDelay="2.00" arrival="137.00" arrivalLane="D7D8_0" arrivalPos="491.30" arrivalSpeed="13.56" duration="128.00" routeLength="1493.50" waitingTime="0.00" waitingCount="0" stopTime="0.00" timeLoss="23.30" rerouteNo="0" devices="tripinfo_f_0_4.2 emissions_f_0_4.2" vType="DEFAULT_VEHTYPE" speedFactor="1.03" vaporized="">
        <emissions CO_abs="4539.303010" CO2_abs="369082.677434" HC_abs="29.148873" PMx_abs="6.011761" NOx_abs="146.440459" fuel_abs="117720.344272" electricity_abs="0"/>
    </tripinfo>
    <tripinfo id="f_1_14.2" depart="9.00" departLane="C2C3_0" departPos="5.10" departSpeed="0.00" departDelay="0.00" arrival="137.00" arrivalLane="C4C5_0" arrivalPos="492.80" arrivalSpeed="15.62" duration="128.00" routeLength="1494.90" waitingTime="1.00" waitingCount="1" stopTime="0.00" timeLoss="33.29" rerouteNo="0" devices="tripinfo_f_1_14.2 emissions_f_1_14.2" vType="DEFAULT_VEHTYPE" speedFactor="1.14" vaporized="">
        <emissions CO_abs="4941.602408" CO2_abs="376323.810048" HC_abs="30.757989" PMx_abs="5.919158" NOx_abs="146.638458" fuel_abs="120030.397555" electricity_abs="0"/>
    </tripinfo>
    <tripinfo id="f_0_3.3" depart="24.00" departLane="C9C8_0" departPos="5.10" departSpeed="0.00" departDelay="0.00" arrival="137.00" arrivalLane="C7C6_0" arrivalPos="492.80" arrivalSpeed="14.00" duration="113.00" routeLength="1494.90" waitingTime="0.00" waitingCount="0" stopTime="0.00" timeLoss="11.07" rerouteNo="0" devices="tripinfo_f_0_3.3 emissions_f_0_3.3" vType="DEFAULT_VEHTYPE" speedFactor="1.06" vaporized="">
        <emissions CO_abs="2963.031847" CO2_abs="310079.894550" HC_abs="20.205354" PMx_abs="4.543720" NOx_abs="117.563399" fuel_abs="98901.314986" electricity_abs="0"/>
    </tripinfo>
    <tripinfo id="f_1_9.1" depart="4.00" departLane="G9G8_0" departPos="5.10" departSpeed="0.00" departDelay="1.00" arrival="138.00" arrivalLane="G7G6_0" arrivalPos="492.80" arrivalSpeed="11.67" duration="134.00" routeLength="1494.90" waitingTime="0.00" waitingCount="0" stopTime="0.00" timeLoss="10.60" rerouteNo="0" devices="tripinfo_f_1_9.1 emissions_f_1_9.1" vType="DEFAULT_VEHTYPE" speedFactor="0.87" vaporized="">
        <emissions CO_abs="3412.751221" CO2_abs="305780.480636" HC_abs="22.442034" PMx_abs="4.173275" NOx_abs="115.932402" fuel_abs="97530.580805" electricity_abs="0"/>
    </tripinfo>
    <tripinfo id="f_1_15.3" depart="20.00" departLane="C6C5_0" departPos="5.10" departSpeed="0.00" departDelay="0.00" arrival="138.00" arrivalLane="C4C3_0" arrivalPos="491.30" arrivalSpeed="14.56" duration="118.00" routeLength="1493.50" waitingTime="0.00" waitingCount="0" stopTime="0.00" timeLoss="16.52" rerouteNo="0" devices="tripinfo_f_1_15.3 emissions_f_1_15.3" vType="DEFAULT_VEHTYPE" speedFactor="1.06" vaporized="">
        <emissions CO_abs="3839.778237" CO2_abs="345344.730612" HC_abs="25.092854" PMx_abs="5.481608" NOx_abs="134.315979" fuel_abs="110149.006287" electricity_abs="0"/>
    </tripinfo>
    <tripinfo id="f_0_2.2" depart="7.00" departLane="C5C6_0" departPos="5.10" departSpeed="0.00" departDelay="0.00" arrival="139.00" arrivalLane="C7C8_0" arrivalPos="491.30" arrivalSpeed="11.97" duration="132.00" routeLength="1493.50" waitingTime="0.00" waitingCount="0" stopTime="0.00" timeLoss="12.00" rerouteNo="0" devices="tripinfo_f_0_2.2 emissions_f_0_2.2" vType="DEFAULT_VEHTYPE" speedFactor="0.90" vaporized="">
        <emissions CO_abs="3359.012452" CO2_abs="310798.105083" HC_abs="22.135936" PMx_abs="4.138042" NOx_abs="116.620727" fuel_abs="99131.059760" electricity_abs="0"/>
    </tripinfo>
    <tripinfo id="f_1_14.3" depart="15.00" departLane="C2C3_0" departPos="5.10" departSpeed="0.00" departDelay="0.00" arrival="139.00" arrivalLane="C4C5_0" arrivalPos="492.80" arrivalSpeed="13.70" duration="124.00" routeLength="1494.90" waitingTime="0.00" waitingCount="0" stopTime="0.00" timeLoss="15.87" rerouteNo="0" devices="tripinfo_f_1_14.3 emissions_f_1_14.3" vType="DEFAULT_VEHTYPE" speedFactor="1.00" vaporized="">
        <emissions CO_abs="3859.961244" CO2_abs="348391.302124" HC_abs="25.142318" PMx_abs="5.164052" NOx_abs="133.070030" fuel_abs="111121.128245" electricity_abs="0"/>
    </tripinfo>
    <tripinfo id="f_1_20.0" depart="0.00" departLane="G2G3_0" departPos="5.10" departSpeed="0.00" departDelay="0.00" arrival="140.00" arrivalLane="G4G5_0" arrivalPos="492.80" arrivalSpeed="11.41" duration="140.00" routeLength="1494.90" waitingTime="0.00" waitingCount="0" stopTime="0.00" timeLoss="9.80" rerouteNo="0" devices="tripinfo_f_1_20.0 emissions_f_1_20.0" vType="DEFAULT_VEHTYPE" speedFactor="0.83" vaporized="">
        <emissions CO_abs="3331.158515" CO2_abs="297998.302015" HC_abs="21.876383" PMx_abs="3.751340" NOx_abs="111.015244" fuel_abs="95048.784085" electricity_abs="0"/>
    </tripinfo>
    <tripinfo id="f_1_9.2" depart="7.00" departLane="G9G8_0" departPos="5.10" departSpeed="0.00" departDelay="3.00" arrival="140.00" arrivalLane="G7G6_0" arrivalPos="492.80" arrivalSpeed="12.27" duration="133.00" routeLength="1494.90" waitingTime="0.00" waitingCount="0" stopTime="0.00" timeLoss="19.22" rerouteNo="0" devices="tripinfo_f_1_9.2 emissions_f_1_9.2" vType="DEFAULT_VEHTYPE" speedFactor="0.95" vaporized="">
        <emissions CO_abs="4049.393827" CO2_abs="334261.066587" HC_abs="26.010009" PMx_abs="5.027481" NOx_abs="129.885274" fuel_abs="106614.313200" electricity_abs="0"/>
    </tripinfo>
    <tripinfo id="f_1_20.1" depart="3.00" departLane="G2G3_0" departPos="5.10" departSpeed="0.00" departDelay="2.00" arrival="141.00" arrivalLane="G4G5_0" arrivalPos="492.80" arrivalSpeed="13.31" duration="138.00" routeLength="1494.90" waitingTime="0.00" waitingCount="0" stopTime="0.00" timeLoss="42.16" rerouteNo="0" devices="tripinfo_f_1_20.1 emissions_f_1_20.1" vType="DEFAULT_VEHTYPE" speedFactor="1.12" vaporized="">
        <emissions CO_abs="4596.978200" CO2_abs="351699.809280" HC_abs="29.029794" PMx_abs="5.442461" NOx_abs="138.381367" fuel_abs="112176.481911" electricity_abs="0"/>
    </tripinfo>
    <tripinfo id="f_0_2.3" depart="10.00" departLane="C5C6_0" departPos="5.10" departSpeed="0.00" departDelay="2.00" arrival="141.00" arrivalLane="C7C8_0" arrivalPos="491.30" arrivalSpeed="12.35" duration="131.00" routeLength="1493.50" waitingTime="0.00" waitingCount="0" stopTime="0.00" timeLoss="11.27" rerouteNo="0" devices="tripinfo_f_0_2.3 emissions_f_0_2.3" vType="DEFAULT_VEHTYPE" speedFactor="0.90" vaporized="">
        <emissions CO_abs="3218.745590" CO2_abs="308093.759435" HC_abs="21.446090" PMx_abs="4.097668" NOx_abs="115.424180" fuel_abs="98268.444848" electricity_abs="0"/>
    </tripinfo>
    <tripinfo id="f_1_10.2" depart="13.00" departLane="H5H6_0" departPos="5.10" departSpeed="0.00" departDelay="2.00" arrival="141.00" arrivalLane="H7H8_0" arrivalPos="491.30" arrivalSpeed="11.87" duration="128.00" routeLength="1493.50" waitingTime="0.00" waitingCount="0" stopTime="0.00" timeLoss="9.54" rerouteNo="0" devices="tripinfo_f_1_10.2 emissions_f_1_10.2" vType="DEFAULT_VEHTYPE" speedFactor="0.91" vaporized="">
        <emissions CO_abs="2929.130588" CO2_abs="296095.573721" HC_abs="19.901185" PMx_abs="3.899686" NOx_abs="110.601618" fuel_abs="94441.489980" electricity_abs="0"/>
    </tripinfo>
    <tripinfo id="f_1_14.4" depart="18.00" departLane="C2C3_0" departPos="5.10" departSpeed="0.00" departDelay="0.00" arrival="141.00" arrivalLane="C4C5_0" arrivalPos="492.80" arrivalSpeed="14.81" duration="123.00" routeLength="1494.90" waitingTime="0.00" waitingCount="0" stopTime="0.00" timeLoss="26.11" rerouteNo="0" devices="tripinfo_f_1_14.4 emissions_f_1_14.4" vType="DEFAULT_VEHTYPE" speedFactor="1.12" vaporized="">
        <emissions CO_abs="4525.662739" CO2_abs="372440.620076" HC_abs="28.892349" PMx_abs="6.026944" NOx_abs="145.935565" fuel_abs="118791.432071" electricity_abs="0"/>
    </tripinfo>
    <tripinfo id="f_1_9.3" depart="10.00" departLane="G9G8_0" departPos="5.10" departSpeed="0.00" departDelay="4.00" arrival="142.00" arrivalLane="G7G6_0" arrivalPos="492.80" arrivalSpeed="12.65" duration="132.00" routeLength="1494.90" waitingTime="0.00" waitingCount="0" stopTime="0.00" timeLoss="20.80" rerouteNo="0" devices="tripinfo_f_1_9.3 emissions_f_1_9.3" vType="DEFAULT_VEHTYPE" speedFactor="0.97" vaporized="">
        <emissions CO_abs="4166.150237" CO2_abs="338078.069956" HC_abs="26.520196" PMx_abs="5.275904" NOx_abs="132.494054" fuel_abs="107831.566926" electricity_abs="0"/>
    </tripinfo>
    <tripinfo id="f_1_10.3" depart="16.00" departLane="H5H6_0" departPos="5.10" departSpeed="0.00" departDelay="0.00" arrival="142.00" arrivalLane="H7H8_0" arrivalPos="491.30" arrivalSpeed="13.13" duration="126.00" routeLength="1493.50" waitingTime="0.00" waitingCount="0" stopTime="0.00" timeLoss="20.58" rerouteNo="0" devices="tripinfo_f_1_10.3 emissions_f_1_10.3" vType="DEFAULT_VEHTYPE" speedFactor="1.02" vaporized="">
        <emissions CO_abs="3754.809647" CO2_abs="335985.794507" HC_abs="24.537606" PMx_abs="5.020868" NOx_abs="129.700666" fuel_abs="107164.274274" electricity_abs="0"/>
    </tripinfo>
    <tripinfo id="f_1_14.5" depart="21.00" departLane="C2C3_0" departPos="5.10" departSpeed="0.00" departDelay="1.00" arrival="142.00" arrivalLane="C4C5_0" arrivalPos="492.80" arrivalSpeed="14.19" duration="121.00" routeLength="1494.90" waitingTime="0.00" waitingCount="0" stopTime="0.00" timeLoss="16.76" rerouteNo="0" devices="tripinfo_f_1_14.5 emissions_f_1_14.5" vType="DEFAULT_VEHTYPE" speedFactor="1.03" vaporized="">
        <emissions CO_abs="4011.331906" CO2_abs="351299.117812" HC_abs="25.926385" PMx_abs="5.424714" NOx_abs="135.748573" fuel_abs="112048.392630" electricity_abs="0"/>
    </tripinfo>
    <tripinfo id="f_1_20.2" depart="6.00" departLane="G2G3_0" departPos="5.10" departSpeed="0.00" departDelay="4.00" arrival="143.00" arrivalLane="G4G5_0" arrivalPos="492.80" arrivalSpeed="14.04" duration="137.00" routeLength="1494.90" waitingTime="0.00" waitingCount="0" stopTime="0.00" timeLoss="31.03" rerouteNo="0" devices="tripinfo_f_1_20.2 emissions_f_1_20.2" vType="DEFAULT_VEHTYPE" speedFactor="1.02" vaporized="">
        <emissions CO_abs="4844.783295" CO2_abs="375230.771462" HC_abs="30.725908" PMx_abs="5.964388" NOx_abs="148.571325" fuel_abs="119681.595186" electricity_abs="0"/>
    </tripinfo>
    <tripinfo id="f_0_2.4" depart="13.00" departLane="C5C6_0" departPos="5.10" departSpeed="0.00" departDelay="0.00" arrival="143.00" arrivalLane="C7C8_0" arrivalPos="491.30" arrivalSpeed="12.92" duration="130.00" routeLength="1493.50" waitingTime="0.00" waitingCount="0" stopTime="0.00" timeLoss="16.86" rerouteNo="0" devices="tripinfo_f_0_2.4 emissions_f_0_2.4" vType="DEFAULT_VEHTYPE" speedFactor="0.96" vaporized="">