<?xml version="1.0" encoding="UTF-8"?>

<!-- generated on 2024-08-22 13:35:50 by Eclipse SUMO sumo Version 1.17.0
<configuration xmlns:xsi="http://www.w3.org/2001/XMLSchema-instance" xsi:noNamespaceSchemaLocation="http://sumo.dlr.de/xsd/sumoConfiguration.xsd">

    <input>
        <net-file value="double_static_offset.net.xml"/>
        <route-files value="double_2.rou.xml"/>
    </input>

    <output>
        <tripinfo-output value="emissions_test\z_static_offset_2_emissions_tripinfo_double.xml"/>
    </output>

    <processing>
        <time-to-teleport value="-1"/>
    </processing>

    <emissions>
        <device.emissions.probability value="1.0"/>
    </emissions>

    <traci_server>
        <remote-port value="58213"/>
    </traci_server>

</configuration>
-->

<tripinfos xmlns:xsi="http://www.w3.org/2001/XMLSchema-instance" xsi:noNamespaceSchemaLocation="http://sumo.dlr.de/xsd/tripinfo_file.xsd">
    <tripinfo id="f_0_16.0" depart="0.00" departLane="D2D3_0" departPos="5.10" departSpeed="0.00" departDelay="0.00" arrival="108.00" arrivalLane="D4D5_0" arrivalPos="492.80" arrivalSpeed="14.10" duration="108.00" routeLength="1494.90" waitingTime="0.00" waitingCount="0" stopTime="0.00" timeLoss="8.34" rerouteNo="0" devices="tripinfo_f_0_16.0 emissions_f_0_16.0" vType="DEFAULT_VEHTYPE" speedFactor="1.08" vaporized="">
        <emissions CO_abs="2528.003863" CO2_abs="284003.854180" HC_abs="17.447767" PMx_abs="4.037501" NOx_abs="105.452839" fuel_abs="90584.307155" electricity_abs="0"/>
    </tripinfo>
    <tripinfo id="f_0_17.0" depart="1.00" departLane="D6D5_0" departPos="5.10" departSpeed="0.00" departDelay="0.00" arrival="112.00" arrivalLane="D4D3_0" arrivalPos="491.30" arrivalSpeed="13.62" duration="111.00" routeLength="1493.50" waitingTime="0.00" waitingCount="0" stopTime="0.00" timeLoss="7.42" rerouteNo="0" devices="tripinfo_f_0_17.0 emissions_f_0_17.0" vType="DEFAULT_VEHTYPE" speedFactor="1.05" vaporized="">
        <emissions CO_abs="2437.372429" CO2_abs="292138.589341" HC_abs="17.277021" PMx_abs="4.013013" NOx_abs="108.174589" fuel_abs="93178.973712" electricity_abs="0"/>
    </tripinfo>
    <tripinfo id="f_0_10.0" depart="0.00" departLane="H5H6_0" departPos="5.10" departSpeed="0.00" departDelay="0.00" arrival="115.00" arrivalLane="H7H8_0" arrivalPos="491.30" arrivalSpeed="12.88" duration="115.00" routeLength="1493.50" waitingTime="0.00" waitingCount="0" stopTime="0.00" timeLoss="8.36" rerouteNo="0" devices="tripinfo_f_0_10.0 emissions_f_0_10.0" vType="DEFAULT_VEHTYPE" speedFactor="1.01" vaporized="">
        <emissions CO_abs="2265.138398" CO2_abs="288394.319713" HC_abs="16.193134" PMx_abs="3.564876" NOx_abs="104.026435" fuel_abs="91985.071348" electricity_abs="0"/>
    </tripinfo>
    <tripinfo id="f_0_10.1" depart="9.00" departLane="H5H6_0" departPos="5.10" departSpeed="0.00" departDelay="0.00" arrival="117.00" arrivalLane="H7H8_0" arrivalPos="491.30" arrivalSpeed="16.36" duration="108.00" routeLength="1493.50" waitingTime="0.00" waitingCount="0" stopTime="0.00" timeLoss="16.05" rerouteNo="0" devices="tripinfo_f_0_10.1 emissions_f_0_10.1" vType="DEFAULT_VEHTYPE" speedFactor="1.18" vaporized="">
        <emissions CO_abs="3130.406415" CO2_abs="323323.645674" HC_abs="21.348789" PMx_abs="4.957569" NOx_abs="123.372689" fuel_abs="103125.263372" electricity_abs="0"/>
    </tripinfo>
    <tripinfo id="f_0_16.1" depart="3.00" departLane="D2D3_0" departPos="5.10" departSpeed="0.00" departDelay="0.00" arrival="120.00" arrivalLane="D4D5_0" arrivalPos="492.80" arrivalSpeed="13.29" duration="117.00" routeLength="1494.90" waitingTime="0.00" waitingCount="0" stopTime="0.00" timeLoss="7.62" rerouteNo="0" devices="tripinfo_f_0_16.1 emissions_f_0_16.1" vType="DEFAULT_VEHTYPE" speedFactor="0.99" vaporized="">
        <emissions CO_abs="2349.377495" CO2_abs="286292.113172" HC_abs="16.627266" PMx_abs="3.645515" NOx_abs="104.380187" fuel_abs="91314.491794" electricity_abs="0"/>
    </tripinfo>
    <tripinfo id="f_0_5.0" depart="0.00" departLane="D9D8_0" departPos="5.10" departSpeed="0.00" departDelay="0.00" arrival="124.00" arrivalLane="D7D6_0" arrivalPos="492.80" arrivalSpeed="12.81" duration="124.00" routeLength="1494.90" waitingTime="0.00" waitingCount="0" stopTime="0.00" timeLoss="8.52" rerouteNo="0" devices="tripinfo_f_0_5.0 emissions_f_0_5.0" vType="DEFAULT_VEHTYPE" speedFactor="0.94" vaporized="">
        <emissions CO_abs="2501.152409" CO2_abs="298365.915041" HC_abs="17.666527" PMx_abs="3.576302" NOx_abs="108.011043" fuel_abs="95165.795900" electricity_abs="0"/>
    </tripinfo>
    <tripinfo id="f_0_14.0" depart="3.00" departLane="C2C3_0" departPos="5.10" departSpeed="0.00" departDelay="0.00" arrival="127.00" arrivalLane="C4C5_0" arrivalPos="492.80" arrivalSpeed="14.40" duration="124.00" routeLength="1494.90" waitingTime="14.00" waitingCount="1" stopTime="0.00" timeLoss="27.54" rerouteNo="0" devices="tripinfo_f_0_14.0 emissions_f_0_14.0" vType="DEFAULT_VEHTYPE" speedFactor="1.12" vaporized="">
        <emissions CO_abs="5599.380748" CO2_abs="365485.278182" HC_abs="32.872433" PMx_abs="5.635627" NOx_abs="138.908598" fuel_abs="116574.053838" electricity_abs="0"/>
    </tripinfo>
    <tripinfo id="f_0_5.1" depart="4.00" departLane="D9D8_0" departPos="5.10" departSpeed="0.00" departDelay="0.00" arrival="127.00" arrivalLane="D7D6_0" arrivalPos="492.80" arrivalSpeed="13.05" duration="123.00" routeLength="1494.90" waitingTime="0.00" waitingCount="0" stopTime="0.00" timeLoss="8.31" rerouteNo="0" devices="tripinfo_f_0_5.1 emissions_f_0_5.1" vType="DEFAULT_VEHTYPE" speedFactor="0.94" vaporized="">
        <emissions CO_abs="2474.090649" CO2_abs="299210.545946" HC_abs="17.302664" PMx_abs="3.511551" NOx_abs="107.221207" fuel_abs="95435.274825" electricity_abs="0"/>
    </tripinfo>
    <tripinfo id="f_0_2.0" depart="0.00" departLane="C5C6_0" departPos="5.10" departSpeed="0.00" departDelay="0.00" arrival="128.00" arrivalLane="C7C8_0" arrivalPos="491.30" arrivalSpeed="13.45" duration="128.00" routeLength="1493.50" waitingTime="15.00" waitingCount="1" stopTime="0.00" timeLoss="26.49" rerouteNo="0" devices="tripinfo_f_0_2.0 emissions_f_0_2.0" vType="DEFAULT_VEHTYPE" speedFactor="1.06" vaporized="">
        <emissions CO_abs="5654.602980" CO2_abs="347179.274607" HC_abs="33.242854" PMx_abs="5.570646" NOx_abs="134.716321" fuel_abs="110735.213010" electricity_abs="0"/>
    </tripinfo>
    <tripinfo id="f_0_14.1" depart="10.00" departLane="C2C3_0" departPos="5.10" departSpeed="0.00" departDelay="0.00" arrival="128.00" arrivalLane="C4C5_0" arrivalPos="492.80" arrivalSpeed="16.17" duration="118.00" routeLength="1494.90" waitingTime="11.00" waitingCount="1" stopTime="0.00" timeLoss="26.06" rerouteNo="0" devices="tripinfo_f_0_14.1 emissions_f_0_14.1" vType="DEFAULT_VEHTYPE" speedFactor="1.17" vaporized="">
        <emissions CO_abs="5206.428651" CO2_abs="357125.528598" HC_abs="31.384037" PMx_abs="5.782051" NOx_abs="137.537816" fuel_abs="113907.262062" electricity_abs="0"/>
    </tripinfo>
    <tripinfo id="f_0_3.0" depart="11.00" departLane="C9C8_0" departPos="5.10" departSpeed="0.00" departDelay="0.00" arrival="129.00" arrivalLane="C7C6_0" arrivalPos="492.80" arrivalSpeed="14.05" duration="118.00" routeLength="1494.90" waitingTime="0.00" waitingCount="0" stopTime="0.00" timeLoss="12.34" rerouteNo="0" devices="tripinfo_f_0_3.0 emissions_f_0_3.0" vType="DEFAULT_VEHTYPE" speedFactor="1.02" vaporized="">
        <emissions CO_abs="3245.199742" CO2_abs="320752.499335" HC_abs="21.632709" PMx_abs="4.608303" NOx_abs="120.949355" fuel_abs="102305.596287" electricity_abs="0"/>
    </tripinfo>
    <tripinfo id="f_0_9.0" depart="3.00" departLane="G9G8_0" departPos="5.10" departSpeed="0.00" departDelay="0.00" arrival="130.00" arrivalLane="G7G6_0" arrivalPos="492.80" arrivalSpeed="13.45" duration="127.00" routeLength="1494.90" waitingTime="8.00" waitingCount="1" stopTime="0.00" timeLoss="21.58" rerouteNo="0" devices="tripinfo_f_0_9.0 emissions_f_0_9.0" vType="DEFAULT_VEHTYPE" speedFactor="1.03" vaporized="">
        <emissions CO_abs="4549.651831" CO2_abs="335159.752104" HC_abs="27.936749" PMx_abs="4.984159" NOx_abs="127.763125" fuel_abs="106901.388273" electricity_abs="0"/>
    </tripinfo>
    <tripinfo id="f_0_2.1" depart="3.00" departLane="C5C6_0" departPos="5.10" departSpeed="0.00" departDelay="2.00" arrival="131.00" arrivalLane="C7C8_0" arrivalPos="491.30" arrivalSpeed="13.94" duration="128.00" routeLength="1493.50" waitingTime="9.00" waitingCount="1" stopTime="0.00" timeLoss="23.13" rerouteNo="0" devices="tripinfo_f_0_2.1 emissions_f_0_2.1" vType="DEFAULT_VEHTYPE" speedFactor="1.03" vaporized="">
        <emissions CO_abs="4804.997292" CO2_abs="349887.196935" HC_abs="29.447225" PMx_abs="5.268156" NOx_abs="134.123349" fuel_abs="111598.748963" electricity_abs="0"/>
    </tripinfo>
    <tripinfo id="f_0_9.1" depart="6.00" departLane="G9G8_0" departPos="5.10" departSpeed="0.00" departDelay="0.00" arrival="132.00" arrivalLane="G7G6_0" arrivalPos="492.80" arrivalSpeed="13.47" duration="126.00" routeLength="1494.90" waitingTime="7.00" waitingCount="1" stopTime="0.00" timeLoss="19.31" rerouteNo="0" devices="tripinfo_f_0_9.1 emissions_f_0_9.1" vType="DEFAULT_VEHTYPE" speedFactor="1.01" vaporized="">
        <emissions CO_abs="4443.011190" CO2_abs="337961.476312" HC_abs="27.397675" PMx_abs="4.974256" NOx_abs="128.523522" fuel_abs="107794.972956" electricity_abs="0"/>
    </tripinfo>
    <tripinfo id="f_0_14.2" depart="13.00" departLane="C2C3_0" departPos="5.10" departSpeed="0.00" departDelay="1.00" arrival="132.00" arrivalLane="C4C5_0" arrivalPos="492.80" arrivalSpeed="14.14" duration="119.00" routeLength="1494.90" waitingTime="6.00" waitingCount="1" stopTime="0.00" timeLoss="20.08" rerouteNo="0" devices="tripinfo_f_0_14.2 emissions_f_0_14.2" vType="DEFAULT_VEHTYPE" speedFactor="1.09" vaporized="">
        <emissions CO_abs="4205.290345" CO2_abs="337131.367879" HC_abs="25.900788" PMx_abs="4.910778" NOx_abs="126.204189" fuel_abs="107530.110430" electricity_abs="0"/>
    </tripinfo>
    <tripinfo id="f_0_15.0" depart="16.00" departLane="C6C5_0" departPos="5.10" departSpeed="0.00" departDelay="0.00" arrival="133.00" arrivalLane="C4C3_0" arrivalPos="491.30" arrivalSpeed="12.62" duration="117.00" routeLength="1493.50" waitingTime="0.00" waitingCount="0" stopTime="0.00" timeLoss="8.31" rerouteNo="0" devices="tripinfo_f_0_15.0 emissions_f_0_15.0" vType="DEFAULT_VEHTYPE" speedFactor="1.00" vaporized="">
        <emissions CO_abs="2552.710069" CO2_abs="288559.969899" HC_abs="17.560478" PMx_abs="3.831711" NOx_abs="106.677241" fuel_abs="92037.741424" electricity_abs="0"/>
    </tripinfo>
    <tripinfo id="f_0_8.0" depart="2.00" departLane="G5G6_0" departPos="5.10" departSpeed="0.00" departDelay="0.00" arrival="134.00" arrivalLane="G7G8_0" arrivalPos="491.30" arrivalSpeed="12.06" duration="132.00" routeLength="1493.50" waitingTime="0.00" waitingCount="0" stopTime="0.00" timeLoss="9.71" rerouteNo="0" devices="tripinfo_f_0_8.0 emissions_f_0_8.0" vType="DEFAULT_VEHTYPE" speedFactor="0.89" vaporized="">
        <emissions CO_abs="3100.112214" CO2_abs="300986.933929" HC_abs="20.867905" PMx_abs="3.967501" NOx_abs="112.850368" fuel_abs="96001.676897" electricity_abs="0"/>
    </tripinfo>
    <tripinfo id="f_0_15.1" depart="20.00" departLane="C6C5_0" departPos="5.10" departSpeed="0.00" departDelay="0.00" arrival="134.00" arrivalLane="C4C3_0" arrivalPos="491.30" arrivalSpeed="14.51" duration="114.00" routeLength="1493.50" waitingTime="0.00" waitingCount="0" stopTime="0.00" timeLoss="12.04" rerouteNo="0" devices="tripinfo_f_0_15.1 emissions_f_0_15.1" vType="DEFAULT_VEHTYPE" speedFactor="1.06" vaporized="">
        <emissions CO_abs="3016.299327" CO2_abs="310747.327618" HC_abs="20.392623" PMx_abs="4.509965" NOx_abs="117.439318" fuel_abs="99114.265602" electricity_abs="0"/>
    </tripinfo>
    <tripinfo id="f_0_8.1" depart="4.00" departLane="G5G6_0" departPos="5.10" departSpeed="0.00" departDelay="1.00" arrival="135.00" arrivalLane="G7G8_0" arrivalPos="491.30" arrivalSpeed="13.28" duration="131.00" routeLength="1493.50" waitingTime="0.00" waitingCount="0" stopTime="0.00" timeLoss="32.25" rerouteNo="0" devices="tripinfo_f_0_8.1 emissions_f_0_8.1" vType="DEFAULT_VEHTYPE" speedFactor="1.09" vaporized="">
        <emissions CO_abs="4270.051248" CO2_abs="347466.039625" HC_abs="27.378765" PMx_abs="5.411028" NOx_abs="136.334243" fuel_abs="110825.908426" electricity_abs="0"/>
    </tripinfo>
    <tripinfo id="f_0_9.2" depart="9.00" departLane="G9G8_0" departPos="5.10" departSpeed="0.00" departDelay="1.00" arrival="136.00" arrivalLane="G7G6_0" arrivalPos="492.80" arrivalSpeed="13.01" duration="127.00" routeLength="1494.90" waitingTime="0.00" waitingCount="0" stopTime="0.00" timeLoss="13.50" rerouteNo="0" devices="tripinfo_f_0_9.2 emissions_f_0_9.2" vType="DEFAULT_VEHTYPE" speedFactor="0.95" vaporized="">
        <emissions CO_abs="3386.733343" CO2_abs="316093.050611" HC_abs="22.337232" PMx_abs="4.406212" NOx_abs="119.511227" fuel_abs="100819.680838" electricity_abs="0"/>
    </tripinfo>
    <tripinfo id="f_1_15.0" depart="25.00" departLane="C6C5_0" departPos="5.10" departSpeed="0.00" departDelay="0.00" arrival="136.00" arrivalLane="C4C3_0" arrivalPos="491.30" arrivalSpeed="15.57" duration="111.00" routeLength="1493.50" waitingTime="0.00" waitingCount="0" stopTime="0.00" timeLoss="16.86" rerouteNo="0" devices="tripinfo_f_1_15.0 emissions_f_1_15.0" vType="DEFAULT_VEHTYPE" speedFactor="1.15" vaporized="">
        <emissions CO_abs="3426.561063" CO2_abs="341178.419838" HC_abs="23.055729" PMx_abs="5.257532" NOx_abs="130.785750" fuel_abs="108820.126087" electricity_abs="0"/>
    </tripinfo>
    <tripinfo id="f_0_2.2" depart="6.00" departLane="C5C6_0" departPos="5.10" departSpeed="0.00" departDelay="1.00" arrival="137.00" arrivalLane="C7C8_0" arrivalPos="491.30" arrivalSpeed="12.91" duration="131.00" routeLength="1493.50" waitingTime="2.00" waitingCount="1" stopTime="0.00" timeLoss="15.82" rerouteNo="0" devices="tripinfo_f_0_2.2 emissions_f_0_2.2" vType="DEFAULT_VEHTYPE" speedFactor="0.94" vaporized="">
        <emissions CO_abs="3573.514047" CO2_abs="316737.298638" HC_abs="23.015142" PMx_abs="4.206914" NOx_abs="118.035961" fuel_abs="101025.531710" electricity_abs="0"/>
    </tripinfo>
    <tripinfo id="f_0_14.3" depart="16.00" departLane="C2C3_0" departPos="5.10" departSpeed="0.00" departDelay="1.00" arrival="137.00" arrivalLane="C4C5_0" arrivalPos="492.80" arrivalSpeed="13.35" duration="121.00" routeLength="1494.90" waitingTime="0.00" waitingCount="0" stopTime="0.00" timeLoss="13.20" rerouteNo="0" devices="tripinfo_f_0_14.3 emissions_f_0_14.3" vType="DEFAULT_VEHTYPE" speedFactor="1.00" vaporized="">
        <emissions CO_abs="3152.754925" CO2_abs="309446.581712" HC_abs="20.764020" PMx_abs="4.239752" NOx_abs="115.197690" fuel_abs="98699.750796" electricity_abs="0"/>
    </tripinfo>
    <tripinfo id="f_0_8.2" depart="17.00" departLane="G5G6_0" departPos="5.10" departSpeed="0.00" departDelay="0.00" arrival="137.00" arrivalLane="G7G8_0" arrivalPos="491.30" arrivalSpeed="12.97" duration="120.00" routeLength="1493.50" waitingTime="0.00" waitingCount="0" stopTime="0.00" timeLoss="14.53" rerouteNo="0" devices="tripinfo_f_0_8.2 emissions_f_0_8.2" vType="DEFAULT_VEHTYPE" speedFactor="1.02" vaporized="">
        <emissions CO_abs="3465.915302" CO2_abs="323337.075759" HC_abs="22.965051" PMx_abs="4.914446" NOx_abs="124.704440" fuel_abs="103129.753087" electricity_abs="0"/>
    </tripinfo>
    <tripinfo id="f_0_9.3" depart="12.00" departLane="G9G8_0" departPos="5.10" departSpeed="0.00" departDelay="1.00" arrival="138.00" arrivalLane="G7G6_0" arrivalPos="492.80" arrivalSpeed="16.12" duration="126.00" routeLength="1494.90" waitingTime="0.00" waitingCount="0" stopTime="0.00" timeLoss="34.32" rerouteNo="0" devices="tripinfo_f_0_9.3 emissions_f_0_9.3" vType="DEFAULT_VEHTYPE" speedFactor="1.18" vaporized="">
        <emissions CO_abs="4265.637180" CO2_abs="353051.068778" HC_abs="27.287857" PMx_abs="5.569915" NOx_abs="138.020922" fuel_abs="112607.199502" electricity_abs="0"/>
    </tripinfo>
    <tripinfo id="f_0_9.4" depart="15.00" departLane="G9G8_0" departPos="5.10" departSpeed="0.00" departDelay="2.00" arrival="140.00" arrivalLane="G7G6_0" arrivalPos="492.80" arrivalSpeed="14.66" duration="125.00" routeLength="1494.90" waitingTime="0.00" waitingCount="0" stopTime="0.00" timeLoss="25.30" rerouteNo="0" devices="tripinfo_f_0_9.4 emissions_f_0_9.4" vType="DEFAULT_VEHTYPE" speedFactor="1.09" vaporized="">
        <emissions CO_abs="4217.860464" CO2_abs="341342.173375" HC_abs="26.799785" PMx_abs="5.460923" NOx_abs="133.726516" fuel_abs="108872.558228" electricity_abs="0"/>
    </tripinfo>
    <tripinfo id="f_0_9.5" depart="18.00" departLane="G9G8_0" departPos="5.10" departSpeed="0.00" departDelay="1.00" arrival="142.00" arrivalLane="G7G6_0" arrivalPos="492.80" arrivalSpeed="12.24" duration="124.00" routeLength="1494.90" waitingTime="0.00" waitingCount="0" stopTime="0.00" timeLoss="12.20" rerouteNo="0" devices="tripinfo_f_0_9.5 emissions_f_0_9.5" vType="DEFAULT_VEHTYPE" speedFactor="0.97" vaporized="">
        <emissions CO_abs="3073.087287" CO2_abs="305811.380113" HC_abs="20.504082" PMx_abs="4.160596" NOx_abs="114.433386" fuel_abs="97540.287020" electricity_abs="0"/>
    </tripinfo>
    <tripinfo id="f_0_9.6" depart="21.00" departLane="G9G8_0" departPos="5.10" departSpeed="0.00" departDelay="1.00" arrival="143.00" arrivalLane="G7G6_0" arrivalPos="492.80" arrivalSpeed="13.76" duration="122.00" routeLength="1494.90" waitingTime="0.00" waitingCount="0" stopTime="0.00" timeLoss="16.51" rerouteNo="0" devices="tripinfo_f_0_9.6 emissions_f_0_9.6" vType="DEFAULT_VEHTYPE" speedFactor="1.02" vaporized="">
        <emissions CO_abs="3399.055162" CO2_abs="316201.471186" HC_abs="22.384677" PMx_abs="4.636564" NOx_abs="120.851061" fuel_abs="100854.011054" electricity_abs="0"/>
    </tripinfo>
    <tripinfo id="f_0_2.3" depart="17.00" departLane="C5C6_0" departPos="5.10" departSpeed="0.00" departDelay="0.00" arrival="146.00" arrivalLane="C7C8_0" arrivalPos="491.30" arrivalSpeed="12.27" duration="129.00" routeLength="1493.50" waitingTime="0.00" waitingCount="0" stopTime="0.00" timeLoss="8.73" rerouteNo="0" devices="tripinfo_f_0_2.3 emissions_f_0_2.3" vType="DEFAULT_VEHTYPE" speedFactor="0.90" vaporized="">
        <emissions CO_abs="2718.399842" CO2_abs="299892.804080" HC_abs="18.775748" PMx_abs="3.559496" NOx_abs="108.851717" fuel_abs="95652.972390" electricity_abs="0"/>
    </tripinfo>
    <tripinfo id="f_1_15.1" depart="28.00" departLane="C6C5_0" departPos="5.10" departSpeed="0.00" departDelay="2.00" arrival="159.00" arrivalLane="C4C3_0" arrivalPos="491.30" arrivalSpeed="14.42" duration="131.00" routeLength="1493.50" waitingTime="14.00" waitingCount="1" stopTime="0.00" timeLoss="27.80" rerouteNo="0" devices="tripinfo_f_1_15.1 emissions_f_1_15.1" vType="DEFAULT_VEHTYPE" speedFactor="1.04" vaporized="">
        <emissions CO_abs="5596.881852" CO2_abs="358241.189934" HC_abs="33.009452" PMx_abs="5.490472" NOx_abs="137.269531" fuel_abs="114263.629173" electricity_abs="0"/>
    </tripinfo>
    <tripinfo id="f_0_2.4" depart="39.00" departLane="C5C6_0" departPos="5.10" departSpeed="0.00" departDelay="0.00" arrival="161.00" arrivalLane="C7C8_0" arrivalPos="491.30" arrivalSpeed="13.07" duration="122.00" routeLength="1493.50" waitingTime="5.00" waitingCount="1" stopTime="0.00" timeLoss="16.73" rerouteNo="0" devices="tripinfo_f_0_2.4 emissions_f_0_2.4" vType="DEFAULT_VEHTYPE" speedFactor="1.02" vaporized="">
        <emissions CO_abs="3884.637595" CO2_abs="325367.044228" HC_abs="24.254460" PMx_abs="4.601673" NOx_abs="122.159202" fuel_abs="103777.820290" electricity_abs="0"/>
    </tripinfo>
    <tripinfo id="f_0_3.1" depart="33.00" departLane="C9C8_0" departPos="5.10" departSpeed="0.00" departDelay="0.00" arrival="162.00" arrivalLane="C7C6_0" arrivalPos="492.80" arrivalSpeed="13.43" duration="129.00" routeLength="1494.90" waitingTime="9.00" waitingCount="1" stopTime="0.00" timeLoss="22.41" rerouteNo="0" devices="tripinfo_f_0_3.1 emissions_f_0_3.1" vType="DEFAULT_VEHTYPE" speedFactor="1.01" vaporized="">
        <emissions CO_abs="4845.931041" CO2_abs="344566.305743" HC_abs="29.216173" PMx_abs="5.093898" NOx_abs="130.971793" fuel_abs="109901.795949" electricity_abs="0"/>
    </tripinfo>
    <tripinfo id="f_0_9.7" depart="24.00" departLane="G9G8_0" departPos="5.10" departSpeed="0.00" departDelay="2.00" arrival="163.00" arrivalLane="G7G6_0" arrivalPos="492.80" arrivalSpeed="12.95" duration="139.00" routeLength="1494.90" waitingTime="18.00" waitingCount="1" stopTime="0.00" timeLoss="31.54" rerouteNo="0" devices="tripinfo_f_0_9.7 emissions_f_0_9.7" vType="DEFAULT_VEHTYPE" speedFactor="1.01" vaporized="">
        <emissions CO_abs="6378.699341" CO2_abs="370596.229368" HC_abs="36.917539" PMx_abs="5.743432" NOx_abs="143.086287" fuel_abs="118204.640932" electricity_abs="0"/>
    </tripinfo>
    <tripinfo id="f_0_9.8" depart="27.00" departLane="G9G8_0" departPos="5.10" departSpeed="0.00" departDelay="4.00" arrival="164.00" arrivalLane="G7G6_0" arrivalPos="492.80" arrivalSpeed="14.09" duration="137.00" routeLength="1494.90" waitingTime="17.00" waitingCount="1" stopTime="0.00" timeLoss="32.88" rerouteNo="0" devices="tripinfo_f_0_9.8 emissions_f_0_9.8" vType="DEFAULT_VEHTYPE" speedFactor="1.03" vaporized="">
        <emissions CO_abs="6437.518063" CO2_abs="375151.480835" HC_abs="37.358860" PMx_abs="5.971661" NOx_abs="146.266085" fuel_abs="119657.359606" electricity_abs="0"/>
    </tripinfo>
    <tripinfo id="f_0_8.3" depart="25.00" departLane="G5G6_0" departPos="5.10" departSpeed="0.00" departDelay="0.00" arrival="166.00" arrivalLane="G7G8_0" arrivalPos="491.30" arrivalSpeed="13.39" duration="141.00" routeLength="1493.50" waitingTime="14.00" waitingCount="1" stopTime="0.00" timeLoss="29.31" rerouteNo="0" devices="tripinfo_f_0_8.3 emissions_f_0_8.3" vType="DEFAULT_VEHTYPE" speedFactor="0.97" vaporized="">
        <emissions CO_abs="5756.721127" CO2_abs="360366.507196" HC_abs="33.867257" PMx_abs="5.225389" NOx_abs="137.225525" fuel_abs="114941.916574" electricity_abs="0"/>
    </tripinfo>
    <tripinfo id="f_0_9.9" depart="30.00" departLane="G9G8_0" departPos="5.10" departSpeed="0.00" departDelay="3.00" arrival="166.00" arrivalLane="G7G6_0" arrivalPos="492.80" arrivalSpeed="13.51" duration="136.00" routeLength="1494.90" waitingTime="14.00" waitingCount="1" stopTime="0.00" timeLoss="29.85" rerouteNo="0" devices="tripinfo_f_0_9.9 emissions_f_0_9.9" vType="DEFAULT_VEHTYPE" speedFactor="1.02" vaporized="">
        <emissions CO_abs="6015.993991" CO2_abs="357851.961293" HC_abs="35.202772" PMx_abs="5.590213" NOx_abs="138.239869" fuel_abs="114139.658169" electricity_abs="0"/>
    </tripinfo>
    <tripinfo id="f_0_14.4" depart="20.00" departLane="C2C3_0" departPos="5.10" departSpeed="0.00" departDelay="0.00" arrival="168.00" arrivalLane="C4C5_0" arrivalPos="492.80" arrivalSpeed="12.56" duration="148.00" routeLength="1494.90" waitingTime="19.00" waitingCount="1" stopTime="0.00" timeLoss="32.86" rerouteNo="0" devices="tripinfo_f_0_14.4 emissions_f_0_14.4" vType="DEFAULT_VEHTYPE" speedFactor="0.94" vaporized="">
        <emissions CO_abs="6612.007211" CO2_abs="368908.924279" HC_abs="38.132024" PMx_abs="5.574610" NOx_abs="142.158497" fuel_abs="117666.814536" electricity_abs="0"/>
    </tripinfo>
    <tripinfo id="f_0_8.4" depart="28.00" departLane="G5G6_0" departPos="5.10" departSpeed="0.00" departDelay="1.00" arrival="168.00" arrivalLane="G7G8_0" arrivalPos="491.30" arrivalSpeed="12.96" duration="140.00" routeLength="1493.50" waitingTime="13.00" waitingCount="1" stopTime="0.00" timeLoss="33.97" rerouteNo="0" devices="tripinfo_f_0_8.4 emissions_f_0_8.4" vType="DEFAULT_VEHTYPE" speedFactor="1.02" vaporized="">
        <emissions CO_abs="6332.159513" CO2_abs="372291.770802" HC_abs="36.937069" PMx_abs="5.940348" NOx_abs="145.858211" fuel_abs="118745.167567" electricity_abs="0"/>
    </tripinfo>
    <tripinfo id="f_0_9.10" depart="33.00" departLane="G9G8_0" departPos="5.10" departSpeed="0.00" departDelay="3.00" arrival="168.00" arrivalLane="G7G6_0" arrivalPos="492.80" arrivalSpeed="13.70" duration="135.00" routeLength="1494.90" waitingTime="14.00" waitingCount="1" stopTime="0.00" timeLoss="33.36" rerouteNo="0" devices="tripinfo_f_0_9.10 emissions_f_0_9.10" vType="DEFAULT_VEHTYPE" speedFactor="1.06" vaporized="">
        <emissions CO_abs="6787.115100" CO2_abs="385922.991212" HC_abs="39.624919" PMx_abs="6.594037" NOx_abs="153.879161" fuel_abs="123092.624828" electricity_abs="0"/>
    </tripinfo>
    <tripinfo id="f_0_14.5" depart="24.00" departLane="C2C3_0" departPos="5.10" departSpeed="0.00" departDelay="0.00" arrival="169.00" arrivalLane="C4C5_0" arrivalPos="492.80" arrivalSpeed="13.76" duration="145.00" routeLength="1494.90" waitingTime="19.00" waitingCount="1" stopTime="0.00" timeLoss="39.14" rerouteNo="0" devices="tripinfo_f_0_14.5 emissions_f_0_14.5" vType="DEFAULT_VEHTYPE" speedFactor="1.02" vaporized="">
        <emissions CO_abs="7145.521877" CO2_abs="387354.657141" HC_abs="41.051644" PMx_abs="6.428292" NOx_abs="153.594908" fuel_abs="123549.649900" electricity_abs="0"/>
    </tripinfo>
    <tripinfo id="f_0_8.5" depart="33.00" departLane="G5G6_0" departPos="5.10" departSpeed="0.00" departDelay="0.00" arrival="169.00" arrivalLane="G7G8_0" arrivalPos="491.30" arrivalSpeed="13.69" duration="136.00" routeLength="1493.50" waitingTime="13.00" waitingCount="1" stopTime="0.00" timeLoss="34.87" rerouteNo="0" devices="tripinfo_f_0_8.5 emissions_f_0_8.5" vType="DEFAULT_VEHTYPE" speedFactor="1.06" vaporized="">
        <emissions CO_abs="6622.514977" CO2_abs="386776.913182" HC_abs="38.757008" PMx_abs="6.549876" NOx_abs="153.999304" fuel_abs="123364.912550" electricity_abs="0"/>
    </tripinfo>
    <tripinfo id="f_0_9.11" depart="36.00" departLane="G9G8_0" departPos="5.10" departSpeed="0.00" departDelay="1.00" arrival="170.00" arrivalLane="G7G6_0" arrivalPos="492.80" arrivalSpeed="12.95" duration="134.00" routeLength="1494.90" waitingTime="10.00" waitingCount="1" stopTime="0.00" timeLoss="26.66" rerouteNo="0" devices="tripinfo_f_0_9.11 emissions_f_0_9.11" vType="DEFAULT_VEHTYPE" speedFactor="1.01" vaporized="">
        <emissions CO_abs="5425.672862" CO2_abs="359341.229975" HC_abs="32.159001" PMx_abs="5.240517" NOx_abs="136.160085" fuel_abs="114614.669054" electricity_abs="0"/>
    </tripinfo>
    <tripinfo id="f_0_1.0" depart="15.00" departLane="F7E7_0" departPos="5.10" departSpeed="0.00" departDelay="0.00" arrival="171.00" arrivalLane="C7B7_0" arrivalPos="491.30" arrivalSpeed="15.66" duration="156.00" routeLength="1993.50" waitingTime="10.00" waitingCount="2" stopTime="0.00" timeLoss="32.48" rerouteNo="0" devices="tripinfo_f_0_1.0 emissions_f_0_1.0" vType="DEFAULT_VEHTYPE" speedFactor="1.17" vaporized="">
        <emissions CO_abs="6673.077181" CO2_abs="476503.536404" HC_abs="40.195557" PMx_abs="7.648824" NOx_abs="183.486336" fuel_abs="151983.380405" electricity_abs="0"/>
    </tripinfo>
    <tripinfo id="f_1_14.0" depart="36.00" departLane="C2C3_0" departPos="5.10" departSpeed="0.00" departDelay="0.00" arrival="171.00" arrivalLane="C4C5_0" arrivalPos="492.80" arrivalSpeed="12.92" duration="135.00" routeLength="1494.90" waitingTime="8.00" waitingCount="1" stopTime="0.00" timeLoss="27.55" rerouteNo="0" devices="tripinfo_f_1_14.0 emissions_f_1_14.0" vType="DEFAULT_VEHTYPE" speedFactor="1.00" vaporized="">
        <emissions CO_abs="5859.189826" CO2_abs="384807.356825" HC_abs="35.379481" PMx_abs="6.279595" NOx_abs="152.059388" fuel_abs="122736.525512" electricity_abs="0"/>
    </tripinfo>
    <tripinfo id="f_0_8.6" depart="37.00" departLane="G5G6_0" departPos="5.10" departSpeed="0.00" departDelay="0.00" arrival="171.00" arrivalLane="G7G8_0" arrivalPos="491.30" arrivalSpeed="13.48" duration="134.00" routeLength="1493.50" waitingTime="7.00" waitingCount="1" stopTime="0.00" timeLoss="25.24" rerouteNo="0" devices="tripinfo_f_0_8.6 emissions_f_0_8.6" vType="DEFAULT_VEHTYPE" speedFactor="0.99" vaporized="">
        <emissions CO_abs="5326.567965" CO2_abs="354369.836701" HC_abs="32.006530" PMx_abs="5.512838" NOx_abs="137.691858" fuel_abs="113028.576984" electricity_abs="0"/>
    </tripinfo>
    <tripinfo id="f_1_15.2" depart="31.00" departLane="C6C5_0" departPos="5.10" departSpeed="0.00" departDelay="3.00" arrival="172.00" arrivalLane="C4C3_0" arrivalPos="491.30" arrivalSpeed="11.85" duration="141.00" routeLength="1493.50" waitingTime="7.00" waitingCount="1" stopTime="0.00" timeLoss="22.34" rerouteNo="0" devices="tripinfo_f_1_15.2 emissions_f_1_15.2" vType="DEFAULT_VEHTYPE" speedFactor="0.91" vaporized="">
        <emissions CO_abs="4676.833877" CO2_abs="331327.036037" HC_abs="28.526938" PMx_abs="4.560879" NOx_abs="125.250851" fuel_abs="105679.424081" electricity_abs="0"/>
    </tripinfo>
    <tripinfo id="f_0_13.0" depart="3.00" departLane="F4E4_0" departPos="5.10" departSpeed="0.00" departDelay="0.00" arrival="174.00" arrivalLane="C4B4_0" arrivalPos="491.30" arrivalSpeed="14.30" duration="171.00" routeLength="1993.50" waitingTime="10.00" waitingCount="2" stopTime="0.00" timeLoss="33.31" rerouteNo="0" devices="tripinfo_f_0_13.0 emissions_f_0_13.0" vType="DEFAULT_VEHTYPE" speedFactor="1.05" vaporized="">
        <emissions CO_abs="6799.780418" CO2_abs="472109.297017" HC_abs="40.697352" PMx_abs="7.075661" NOx_abs="179.376803" fuel_abs="150582.485708" electricity_abs="0"/>
    </tripinfo>
    <tripinfo id="f_0_7.0" depart="6.00" departLane="J7I7_0" departPos="5.10" departSpeed="0.00" departDelay="0.00" arrival="175.00" arrivalLane="G7F7_0" arrivalPos="492.80" arrivalSpeed="13.37" duration="169.00" routeLength="1994.90" waitingTime="9.00" waitingCount="2" stopTime="0.00" timeLoss="27.40" rerouteNo="0" devices="tripinfo_f_0_7.0 emissions_f_0_7.0" vType="DEFAULT_VEHTYPE" speedFactor="1.02" vaporized="">