<?xml version="1.0" encoding="UTF-8"?>

<!-- generated on 2024-08-22 13:35:52 by Eclipse SUMO sumo Version 1.17.0
<configuration xmlns:xsi="http://www.w3.org/2001/XMLSchema-instance" xsi:noNamespaceSchemaLocation="http://sumo.dlr.de/xsd/sumoConfiguration.xsd">

    <input>
        <net-file value="double_static_offset.net.xml"/>
        <route-files value="double_3.rou.xml"/>
    </input>

    <output>
        <tripinfo-output value="emissions_test\z_static_offset_3_emissions_tripinfo_double.xml"/>
    </output>

    <processing>
        <time-to-teleport value="-1"/>
    </processing>

    <emissions>
        <device.emissions.probability value="1.0"/>
    </emissions>

    <traci_server>
        <remote-port value="58215"/>
    </traci_server>

</configuration>
-->

<tripinfos xmlns:xsi="http://www.w3.org/2001/XMLSchema-instance" xsi:noNamespaceSchemaLocation="http://sumo.dlr.de/xsd/tripinfo_file.xsd">
    <tripinfo id="f_0_11.0" depart="3.00" departLane="H9H8_0" departPos="5.10" departSpeed="0.00" departDelay="0.00" arrival="120.00" arrivalLane="H7H6_0" arrivalPos="492.80" arrivalSpeed="13.37" duration="117.00" routeLength="1494.90" waitingTime="0.00" waitingCount="0" stopTime="0.00" timeLoss="8.17" rerouteNo="0" devices="tripinfo_f_0_11.0 emissions_f_0_11.0" vType="DEFAULT_VEHTYPE" speedFactor="0.99" vaporized="">
        <emissions CO_abs="2311.456472" CO2_abs="280721.291908" HC_abs="16.282926" PMx_abs="3.534955" NOx_abs="102.317137" fuel_abs="89537.679984" electricity_abs="0"/>
    </tripinfo>
    <tripinfo id="f_1_23.0" depart="10.00" departLane="H6H5_0" departPos="5.10" departSpeed="0.00" departDelay="0.00" arrival="121.00" arrivalLane="H4H3_0" arrivalPos="491.30" arrivalSpeed="13.68" duration="111.00" routeLength="1493.50" waitingTime="0.00" waitingCount="0" stopTime="0.00" timeLoss="7.94" rerouteNo="0" devices="tripinfo_f_1_23.0 emissions_f_1_23.0" vType="DEFAULT_VEHTYPE" speedFactor="1.04" vaporized="">
        <emissions CO_abs="2301.456319" CO2_abs="285946.201009" HC_abs="16.444036" PMx_abs="3.799207" NOx_abs="105.045064" fuel_abs="91203.966987" electricity_abs="0"/>
    </tripinfo>
    <tripinfo id="f_0_11.1" depart="10.00" departLane="H9H8_0" departPos="5.10" departSpeed="0.00" departDelay="0.00" arrival="123.00" arrivalLane="H7H6_0" arrivalPos="492.80" arrivalSpeed="13.17" duration="113.00" routeLength="1494.90" waitingTime="0.00" waitingCount="0" stopTime="0.00" timeLoss="8.49" rerouteNo="0" devices="tripinfo_f_0_11.1 emissions_f_0_11.1" vType="DEFAULT_VEHTYPE" speedFactor="1.03" vaporized="">
        <emissions CO_abs="2422.802441" CO2_abs="287209.635549" HC_abs="16.775798" PMx_abs="3.741319" NOx_abs="104.561591" fuel_abs="91607.087763" electricity_abs="0"/>
    </tripinfo>
    <tripinfo id="f_1_21.0" depart="3.00" departLane="G6G5_0" departPos="5.10" departSpeed="0.00" departDelay="0.00" arrival="126.00" arrivalLane="G4G3_0" arrivalPos="491.30" arrivalSpeed="15.49" duration="123.00" routeLength="1493.50" waitingTime="15.00" waitingCount="1" stopTime="0.00" timeLoss="29.23" rerouteNo="0" devices="tripinfo_f_1_21.0 emissions_f_1_21.0" vType="DEFAULT_VEHTYPE" speedFactor="1.16" vaporized="">
        <emissions CO_abs="5963.776282" CO2_abs="372264.711294" HC_abs="34.585260" PMx_abs="5.879754" NOx_abs="142.107644" fuel_abs="118736.397877" electricity_abs="0"/>
    </tripinfo>
    <tripinfo id="f_1_20.0" depart="0.00" departLane="G2G3_0" departPos="5.10" departSpeed="0.00" departDelay="0.00" arrival="128.00" arrivalLane="G4G5_0" arrivalPos="492.80" arrivalSpeed="14.27" duration="128.00" routeLength="1494.90" waitingTime="16.00" waitingCount="1" stopTime="0.00" timeLoss="28.06" rerouteNo="0" devices="tripinfo_f_1_20.0 emissions_f_1_20.0" vType="DEFAULT_VEHTYPE" speedFactor="1.08" vaporized="">
        <emissions CO_abs="5805.954935" CO2_abs="360831.910876" HC_abs="33.627139" PMx_abs="5.564936" NOx_abs="138.039182" fuel_abs="115089.956094" electricity_abs="0"/>
    </tripinfo>
    <tripinfo id="f_1_15.0" depart="10.00" departLane="C6C5_0" departPos="5.10" departSpeed="0.00" departDelay="0.00" arrival="128.00" arrivalLane="C4C3_0" arrivalPos="491.30" arrivalSpeed="13.92" duration="118.00" routeLength="1493.50" waitingTime="5.00" waitingCount="1" stopTime="0.00" timeLoss="18.94" rerouteNo="0" devices="tripinfo_f_1_15.0 emissions_f_1_15.0" vType="DEFAULT_VEHTYPE" speedFactor="1.09" vaporized="">
        <emissions CO_abs="4243.390013" CO2_abs="335845.914425" HC_abs="26.323216" PMx_abs="5.129615" NOx_abs="128.078296" fuel_abs="107119.873379" electricity_abs="0"/>
    </tripinfo>
    <tripinfo id="f_1_16.0" depart="3.00" departLane="D2D3_0" departPos="5.10" departSpeed="0.00" departDelay="0.00" arrival="129.00" arrivalLane="D4D5_0" arrivalPos="492.80" arrivalSpeed="12.57" duration="126.00" routeLength="1494.90" waitingTime="0.00" waitingCount="0" stopTime="0.00" timeLoss="9.00" rerouteNo="0" devices="tripinfo_f_1_16.0 emissions_f_1_16.0" vType="DEFAULT_VEHTYPE" speedFactor="0.93" vaporized="">
        <emissions CO_abs="2929.438907" CO2_abs="306031.628540" HC_abs="20.007208" PMx_abs="3.979392" NOx_abs="113.494984" fuel_abs="97610.670843" electricity_abs="0"/>
    </tripinfo>
    <tripinfo id="f_1_14.0" depart="0.00" departLane="C2C3_0" departPos="5.10" departSpeed="0.00" departDelay="0.00" arrival="130.00" arrivalLane="C4C5_0" arrivalPos="492.80" arrivalSpeed="13.62" duration="130.00" routeLength="1494.90" waitingTime="10.00" waitingCount="1" stopTime="0.00" timeLoss="23.19" rerouteNo="0" devices="tripinfo_f_1_14.0 emissions_f_1_14.0" vType="DEFAULT_VEHTYPE" speedFactor="1.01" vaporized="">
        <emissions CO_abs="4749.466223" CO2_abs="343271.071704" HC_abs="28.746294" PMx_abs="4.997695" NOx_abs="130.330662" fuel_abs="109488.684389" electricity_abs="0"/>
    </tripinfo>
    <tripinfo id="f_0_8.0" depart="9.00" departLane="G5G6_0" departPos="5.10" departSpeed="0.00" departDelay="0.00" arrival="130.00" arrivalLane="G7G8_0" arrivalPos="491.30" arrivalSpeed="13.57" duration="121.00" routeLength="1493.50" waitingTime="1.00" waitingCount="1" stopTime="0.00" timeLoss="14.79" rerouteNo="0" devices="tripinfo_f_0_8.0 emissions_f_0_8.0" vType="DEFAULT_VEHTYPE" speedFactor="1.02" vaporized="">
        <emissions CO_abs="3352.764460" CO2_abs="318685.697330" HC_abs="21.988525" PMx_abs="4.477630" NOx_abs="119.532010" fuel_abs="101646.565764" electricity_abs="0"/>
    </tripinfo>
    <tripinfo id="f_1_14.1" depart="3.00" departLane="C2C3_0" departPos="5.10" departSpeed="0.00" departDelay="2.00" arrival="132.00" arrivalLane="C4C5_0" arrivalPos="492.80" arrivalSpeed="13.79" duration="129.00" routeLength="1494.90" waitingTime="9.00" waitingCount="1" stopTime="0.00" timeLoss="25.42" rerouteNo="0" devices="tripinfo_f_1_14.1 emissions_f_1_14.1" vType="DEFAULT_VEHTYPE" speedFactor="1.05" vaporized="">
        <emissions CO_abs="5232.945357" CO2_abs="354508.409847" HC_abs="31.587235" PMx_abs="5.631132" NOx_abs="138.063734" fuel_abs="113072.592420" electricity_abs="0"/>
    </tripinfo>
    <tripinfo id="f_1_15.1" depart="13.00" departLane="C6C5_0" departPos="5.10" departSpeed="0.00" departDelay="0.00" arrival="132.00" arrivalLane="C4C3_0" arrivalPos="491.30" arrivalSpeed="12.91" duration="119.00" routeLength="1493.50" waitingTime="0.00" waitingCount="0" stopTime="0.00" timeLoss="11.46" rerouteNo="0" devices="tripinfo_f_1_15.1 emissions_f_1_15.1" vType="DEFAULT_VEHTYPE" speedFactor="1.00" vaporized="">
        <emissions CO_abs="2720.739242" CO2_abs="310833.977215" HC_abs="18.644155" PMx_abs="3.868695" NOx_abs="112.558115" fuel_abs="99142.452760" electricity_abs="0"/>
    </tripinfo>
    <tripinfo id="f_0_9.0" depart="0.00" departLane="G9G8_0" departPos="5.10" departSpeed="0.00" departDelay="0.00" arrival="134.00" arrivalLane="G7G6_0" arrivalPos="492.80" arrivalSpeed="12.25" duration="134.00" routeLength="1494.90" waitingTime="4.00" waitingCount="1" stopTime="0.00" timeLoss="18.64" rerouteNo="0" devices="tripinfo_f_0_9.0 emissions_f_0_9.0" vType="DEFAULT_VEHTYPE" speedFactor="0.94" vaporized="">
        <emissions CO_abs="4295.834410" CO2_abs="339277.631825" HC_abs="26.759545" PMx_abs="4.614228" NOx_abs="127.020648" fuel_abs="108215.111153" electricity_abs="0"/>
    </tripinfo>
    <tripinfo id="f_1_20.1" depart="3.00" departLane="G2G3_0" departPos="5.10" departSpeed="0.00" departDelay="0.00" arrival="135.00" arrivalLane="G4G5_0" arrivalPos="492.80" arrivalSpeed="12.13" duration="132.00" routeLength="1494.90" waitingTime="1.00" waitingCount="1" stopTime="0.00" timeLoss="16.64" rerouteNo="0" devices="tripinfo_f_1_20.1 emissions_f_1_20.1" vType="DEFAULT_VEHTYPE" speedFactor="0.94" vaporized="">
        <emissions CO_abs="4031.278553" CO2_abs="331880.435630" HC_abs="25.621427" PMx_abs="4.623521" NOx_abs="125.656203" fuel_abs="105855.450141" electricity_abs="0"/>
    </tripinfo>
    <tripinfo id="f_1_14.2" depart="11.00" departLane="C2C3_0" departPos="5.10" departSpeed="0.00" departDelay="0.00" arrival="135.00" arrivalLane="C4C5_0" arrivalPos="492.80" arrivalSpeed="13.55" duration="124.00" routeLength="1494.90" waitingTime="0.00" waitingCount="0" stopTime="0.00" timeLoss="15.35" rerouteNo="0" devices="tripinfo_f_1_14.2 emissions_f_1_14.2" vType="DEFAULT_VEHTYPE" speedFactor="1.00" vaporized="">
        <emissions CO_abs="3810.648306" CO2_abs="329955.775470" HC_abs="24.362265" PMx_abs="4.765985" NOx_abs="124.984486" fuel_abs="105241.267944" electricity_abs="0"/>
    </tripinfo>
    <tripinfo id="f_0_9.1" depart="12.00" departLane="G9G8_0" departPos="5.10" departSpeed="0.00" departDelay="0.00" arrival="135.00" arrivalLane="G7G6_0" arrivalPos="492.80" arrivalSpeed="14.23" duration="123.00" routeLength="1494.90" waitingTime="4.00" waitingCount="1" stopTime="0.00" timeLoss="30.89" rerouteNo="0" devices="tripinfo_f_0_9.1 emissions_f_0_9.1" vType="DEFAULT_VEHTYPE" speedFactor="1.17" vaporized="">
        <emissions CO_abs="4384.221778" CO2_abs="339077.564435" HC_abs="27.231640" PMx_abs="5.248828" NOx_abs="130.639715" fuel_abs="108150.586713" electricity_abs="0"/>
    </tripinfo>
    <tripinfo id="f_1_14.3" depart="14.00" departLane="C2C3_0" departPos="5.10" departSpeed="0.00" departDelay="2.00" arrival="136.00" arrivalLane="C4C5_0" arrivalPos="492.80" arrivalSpeed="13.88" duration="122.00" routeLength="1494.90" waitingTime="0.00" waitingCount="0" stopTime="0.00" timeLoss="16.15" rerouteNo="0" devices="tripinfo_f_1_14.3 emissions_f_1_14.3" vType="DEFAULT_VEHTYPE" speedFactor="1.02" vaporized="">
        <emissions CO_abs="3451.531818" CO2_abs="323967.872694" HC_abs="22.379053" PMx_abs="4.473652" NOx_abs="120.826459" fuel_abs="103331.453588" electricity_abs="0"/>
    </tripinfo>
    <tripinfo id="f_1_15.2" depart="16.00" departLane="C6C5_0" departPos="5.10" departSpeed="0.00" departDelay="1.00" arrival="136.00" arrivalLane="C4C3_0" arrivalPos="491.30" arrivalSpeed="13.19" duration="120.00" routeLength="1493.50" waitingTime="0.00" waitingCount="0" stopTime="0.00" timeLoss="8.60" rerouteNo="0" devices="tripinfo_f_1_15.2 emissions_f_1_15.2" vType="DEFAULT_VEHTYPE" speedFactor="0.97" vaporized="">
        <emissions CO_abs="2400.971493" CO2_abs="289572.759185" HC_abs="17.093033" PMx_abs="3.597881" NOx_abs="105.259984" fuel_abs="92361.018324" electricity_abs="0"/>
    </tripinfo>
    <tripinfo id="f_0_3.0" depart="22.00" departLane="C9C8_0" departPos="5.10" departSpeed="0.00" departDelay="0.00" arrival="136.00" arrivalLane="C7C6_0" arrivalPos="492.80" arrivalSpeed="13.59" duration="114.00" routeLength="1494.90" waitingTime="0.00" waitingCount="0" stopTime="0.00" timeLoss="7.95" rerouteNo="0" devices="tripinfo_f_0_3.0 emissions_f_0_3.0" vType="DEFAULT_VEHTYPE" speedFactor="1.02" vaporized="">
        <emissions CO_abs="2552.354967" CO2_abs="287131.397174" HC_abs="17.558925" PMx_abs="3.889337" NOx_abs="106.259108" fuel_abs="91582.026369" electricity_abs="0"/>
    </tripinfo>
    <tripinfo id="f_1_20.2" depart="7.00" departLane="G2G3_0" departPos="5.10" departSpeed="0.00" departDelay="0.00" arrival="137.00" arrivalLane="G4G5_0" arrivalPos="492.80" arrivalSpeed="15.35" duration="130.00" routeLength="1494.90" waitingTime="0.00" waitingCount="0" stopTime="0.00" timeLoss="37.92" rerouteNo="0" devices="tripinfo_f_1_20.2 emissions_f_1_20.2" vType="DEFAULT_VEHTYPE" speedFactor="1.18" vaporized="">
        <emissions CO_abs="4979.823929" CO2_abs="383465.492003" HC_abs="31.459176" PMx_abs="6.278381" NOx_abs="151.893089" fuel_abs="122307.966299" electricity_abs="0"/>
    </tripinfo>
    <tripinfo id="f_0_9.2" depart="17.00" departLane="G9G8_0" departPos="5.10" departSpeed="0.00" departDelay="0.00" arrival="137.00" arrivalLane="G7G6_0" arrivalPos="492.80" arrivalSpeed="12.68" duration="120.00" routeLength="1494.90" waitingTime="0.00" waitingCount="0" stopTime="0.00" timeLoss="9.30" rerouteNo="0" devices="tripinfo_f_0_9.2 emissions_f_0_9.2" vType="DEFAULT_VEHTYPE" speedFactor="0.97" vaporized="">
        <emissions CO_abs="2710.788748" CO2_abs="294165.253119" HC_abs="18.794768" PMx_abs="3.981117" NOx_abs="110.011758" fuel_abs="93825.570485" electricity_abs="0"/>
    </tripinfo>
    <tripinfo id="f_1_20.3" depart="10.00" departLane="G2G3_0" departPos="5.10" departSpeed="0.00" departDelay="1.00" arrival="138.00" arrivalLane="G4G5_0" arrivalPos="492.80" arrivalSpeed="16.23" duration="128.00" routeLength="1494.90" waitingTime="0.00" waitingCount="0" stopTime="0.00" timeLoss="36.49" rerouteNo="0" devices="tripinfo_f_1_20.3 emissions_f_1_20.3" vType="DEFAULT_VEHTYPE" speedFactor="1.18" vaporized="">
        <emissions CO_abs="5359.003400" CO2_abs="395808.605314" HC_abs="33.337767" PMx_abs="6.663707" NOx_abs="158.101690" fuel_abs="126244.753415" electricity_abs="0"/>
    </tripinfo>
    <tripinfo id="f_1_21.1" depart="6.00" departLane="G6G5_0" departPos="5.10" departSpeed="0.00" departDelay="1.00" arrival="139.00" arrivalLane="G4G3_0" arrivalPos="491.30" arrivalSpeed="11.82" duration="133.00" routeLength="1493.50" waitingTime="0.00" waitingCount="0" stopTime="0.00" timeLoss="8.89" rerouteNo="0" devices="tripinfo_f_1_21.1 emissions_f_1_21.1" vType="DEFAULT_VEHTYPE" speedFactor="0.87" vaporized="">
        <emissions CO_abs="3016.010017" CO2_abs="300584.940305" HC_abs="20.311240" PMx_abs="3.745918" NOx_abs="110.905286" fuel_abs="95873.681497" electricity_abs="0"/>
    </tripinfo>
    <tripinfo id="f_1_14.4" depart="18.00" departLane="C2C3_0" departPos="5.10" departSpeed="0.00" departDelay="0.00" arrival="139.00" arrivalLane="C4C5_0" arrivalPos="492.80" arrivalSpeed="12.49" duration="121.00" routeLength="1494.90" waitingTime="0.00" waitingCount="0" stopTime="0.00" timeLoss="11.55" rerouteNo="0" devices="tripinfo_f_1_14.4 emissions_f_1_14.4" vType="DEFAULT_VEHTYPE" speedFactor="0.98" vaporized="">
        <emissions CO_abs="2936.123566" CO2_abs="307265.690092" HC_abs="19.861777" PMx_abs="4.159941" NOx_abs="114.468367" fuel_abs="98004.085046" electricity_abs="0"/>
    </tripinfo>
    <tripinfo id="f_0_9.3" depart="20.00" departLane="G9G8_0" departPos="5.10" departSpeed="0.00" departDelay="0.00" arrival="139.00" arrivalLane="G7G6_0" arrivalPos="492.80" arrivalSpeed="12.93" duration="119.00" routeLength="1494.90" waitingTime="0.00" waitingCount="0" stopTime="0.00" timeLoss="8.45" rerouteNo="0" devices="tripinfo_f_0_9.3 emissions_f_0_9.3" vType="DEFAULT_VEHTYPE" speedFactor="0.98" vaporized="">
        <emissions CO_abs="2404.514123" CO2_abs="295739.198252" HC_abs="17.175664" PMx_abs="3.675680" NOx_abs="107.565969" fuel_abs="94327.793754" electricity_abs="0"/>
    </tripinfo>
    <tripinfo id="f_1_21.2" depart="9.00" departLane="G6G5_0" departPos="5.10" departSpeed="0.00" departDelay="3.00" arrival="140.00" arrivalLane="G4G3_0" arrivalPos="491.30" arrivalSpeed="12.69" duration="131.00" routeLength="1493.50" waitingTime="0.00" waitingCount="0" stopTime="0.00" timeLoss="17.52" rerouteNo="0" devices="tripinfo_f_1_21.2 emissions_f_1_21.2" vType="DEFAULT_VEHTYPE" speedFactor="0.95" vaporized="">
        <emissions CO_abs="3993.115401" CO2_abs="335885.140277" HC_abs="25.858936" PMx_abs="5.103947" NOx_abs="130.891623" fuel_abs="107132.199170" electricity_abs="0"/>
    </tripinfo>
    <tripinfo id="f_1_20.4" depart="13.00" departLane="G2G3_0" departPos="5.10" departSpeed="0.00" departDelay="3.00" arrival="140.00" arrivalLane="G4G5_0" arrivalPos="492.80" arrivalSpeed="14.22" duration="127.00" routeLength="1494.90" waitingTime="0.00" waitingCount="0" stopTime="0.00" timeLoss="22.94" rerouteNo="0" devices="tripinfo_f_1_20.4 emissions_f_1_20.4" vType="DEFAULT_VEHTYPE" speedFactor="1.04" vaporized="">
        <emissions CO_abs="4921.036948" CO2_abs="361824.510248" HC_abs="30.716114" PMx_abs="6.099054" NOx_abs="144.459207" fuel_abs="115405.411548" electricity_abs="0"/>
    </tripinfo>
    <tripinfo id="f_1_14.5" depart="21.00" departLane="C2C3_0" departPos="5.10" departSpeed="0.00" departDelay="2.00" arrival="141.00" arrivalLane="C4C5_0" arrivalPos="492.80" arrivalSpeed="13.33" duration="120.00" routeLength="1494.90" waitingTime="0.00" waitingCount="0" stopTime="0.00" timeLoss="15.42" rerouteNo="0" devices="tripinfo_f_1_14.5 emissions_f_1_14.5" vType="DEFAULT_VEHTYPE" speedFactor="1.03" vaporized="">
        <emissions CO_abs="3448.128630" CO2_abs="326474.687634" HC_abs="22.796500" PMx_abs="4.845108" NOx_abs="125.107859" fuel_abs="104130.584782" electricity_abs="0"/>
    </tripinfo>
    <tripinfo id="f_1_20.5" depart="16.00" departLane="G2G3_0" departPos="5.10" departSpeed="0.00" departDelay="1.00" arrival="142.00" arrivalLane="G4G5_0" arrivalPos="492.80" arrivalSpeed="13.69" duration="126.00" routeLength="1494.90" waitingTime="0.00" waitingCount="0" stopTime="0.00" timeLoss="19.39" rerouteNo="0" devices="tripinfo_f_1_20.5 emissions_f_1_20.5" vType="DEFAULT_VEHTYPE" speedFactor="1.02" vaporized="">
        <emissions CO_abs="4326.421904" CO2_abs="346633.456154" HC_abs="27.175656" PMx_abs="5.237029" NOx_abs="133.324374" fuel_abs="110560.618644" electricity_abs="0"/>
    </tripinfo>
    <tripinfo id="f_1_21.3" depart="15.00" departLane="G6G5_0" departPos="5.10" departSpeed="0.00" departDelay="0.00" arrival="142.00" arrivalLane="G4G3_0" arrivalPos="491.30" arrivalSpeed="12.87" duration="127.00" routeLength="1493.50" waitingTime="0.00" waitingCount="0" stopTime="0.00" timeLoss="17.62" rerouteNo="0" devices="tripinfo_f_1_21.3 emissions_f_1_21.3" vType="DEFAULT_VEHTYPE" speedFactor="0.99" vaporized="">
        <emissions CO_abs="4103.713962" CO2_abs="353412.344425" HC_abs="26.650868" PMx_abs="5.466995" NOx_abs="137.891999" fuel_abs="112722.419120" electricity_abs="0"/>
    </tripinfo>
    <tripinfo id="f_1_12.0" depart="2.00" departLane="A4B4_0" departPos="5.10" departSpeed="0.00" departDelay="0.00" arrival="143.00" arrivalLane="D4E4_0" arrivalPos="492.80" arrivalSpeed="14.47" duration="141.00" routeLength="1994.90" waitingTime="0.00" waitingCount="0" stopTime="0.00" timeLoss="8.76" rerouteNo="0" devices="tripinfo_f_1_12.0 emissions_f_1_12.0" vType="DEFAULT_VEHTYPE" speedFactor="1.09" vaporized="">
        <emissions CO_abs="2932.026643" CO2_abs="375625.026711" HC_abs="21.041906" PMx_abs="5.145344" NOx_abs="137.703676" fuel_abs="119807.256604" electricity_abs="0"/>
    </tripinfo>
    <tripinfo id="f_1_20.6" depart="19.00" departLane="G2G3_0" departPos="5.10" departSpeed="0.00" departDelay="3.00" arrival="144.00" arrivalLane="G4G5_0" arrivalPos="492.80" arrivalSpeed="13.24" duration="125.00" routeLength="1494.90" waitingTime="0.00" waitingCount="0" stopTime="0.00" timeLoss="20.62" rerouteNo="0" devices="tripinfo_f_1_20.6 emissions_f_1_20.6" vType="DEFAULT_VEHTYPE" speedFactor="1.04" vaporized="">
        <emissions CO_abs="4327.537694" CO2_abs="348645.289895" HC_abs="27.229301" PMx_abs="5.370151" NOx_abs="134.521186" fuel_abs="111202.187768" electricity_abs="0"/>
    </tripinfo>
    <tripinfo id="f_1_21.4" depart="18.00" departLane="G6G5_0" departPos="5.10" departSpeed="0.00" departDelay="2.00" arrival="144.00" arrivalLane="G4G3_0" arrivalPos="491.30" arrivalSpeed="13.28" duration="126.00" routeLength="1493.50" waitingTime="0.00" waitingCount="0" stopTime="0.00" timeLoss="20.10" rerouteNo="0" devices="tripinfo_f_1_21.4 emissions_f_1_21.4" vType="DEFAULT_VEHTYPE" speedFactor="1.02" vaporized="">
        <emissions CO_abs="4040.294225" CO2_abs="356367.658441" HC_abs="26.218487" PMx_abs="5.447290" NOx_abs="138.258330" fuel_abs="113665.051541" electricity_abs="0"/>
    </tripinfo>
    <tripinfo id="f_1_20.7" depart="22.00" departLane="G2G3_0" departPos="5.10" departSpeed="0.00" departDelay="3.00" arrival="145.00" arrivalLane="G4G5_0" arrivalPos="492.80" arrivalSpeed="13.62" duration="123.00" routeLength="1494.90" waitingTime="0.00" waitingCount="0" stopTime="0.00" timeLoss="17.00" rerouteNo="0" devices="tripinfo_f_1_20.7 emissions_f_1_20.7" vType="DEFAULT_VEHTYPE" speedFactor="1.02" vaporized="">
        <emissions CO_abs="3884.776081" CO2_abs="348797.123858" HC_abs="25.396861" PMx_abs="5.297853" NOx_abs="134.455798" fuel_abs="111250.429348" electricity_abs="0"/>
    </tripinfo>
    <tripinfo id="f_0_6.0" depart="0.00" departLane="E7F7_0" departPos="5.10" departSpeed="0.00" departDelay="0.00" arrival="146.00" arrivalLane="H7I7_0" arrivalPos="491.30" arrivalSpeed="14.22" duration="146.00" routeLength="1993.50" waitingTime="0.00" waitingCount="0" stopTime="0.00" timeLoss="9.74" rerouteNo="0" devices="tripinfo_f_0_6.0 emissions_f_0_6.0" vType="DEFAULT_VEHTYPE" speedFactor="1.06" vaporized="">
        <emissions CO_abs="2642.541009" CO2_abs="373015.853214" HC_abs="19.662878" PMx_abs="4.722929" NOx_abs="134.458962" fuel_abs="118975.343423" electricity_abs="0"/>
    </tripinfo>
    <tripinfo id="f_0_8.1" depart="12.00" departLane="G5G6_0" departPos="5.10" departSpeed="0.00" departDelay="0.00" arrival="148.00" arrivalLane="G7G8_0" arrivalPos="491.30" arrivalSpeed="11.14" duration="136.00" routeLength="1493.50" waitingTime="0.00" waitingCount="0" stopTime="0.00" timeLoss="9.33" rerouteNo="0" devices="tripinfo_f_0_8.1 emissions_f_0_8.1" vType="DEFAULT_VEHTYPE" speedFactor="0.85" vaporized="">
        <emissions CO_abs="2998.044905" CO2_abs="299044.663265" HC_abs="20.291857" PMx_abs="3.593326" NOx_abs="109.751774" fuel_abs="95382.546926" electricity_abs="0"/>
    </tripinfo>
    <tripinfo id="f_0_8.2" depart="22.00" departLane="G5G6_0" departPos="5.10" departSpeed="0.00" departDelay="0.00" arrival="149.00" arrivalLane="G7G8_0" arrivalPos="491.30" arrivalSpeed="13.07" duration="127.00" routeLength="1493.50" waitingTime="0.00" waitingCount="0" stopTime="0.00" timeLoss="20.04" rerouteNo="0" devices="tripinfo_f_0_8.2 emissions_f_0_8.2" vType="DEFAULT_VEHTYPE" speedFactor="1.01" vaporized="">
        <emissions CO_abs="3442.387023" CO2_abs="316930.592075" HC_abs="22.617540" PMx_abs="4.511299" NOx_abs="120.546630" fuel_abs="101086.723544" electricity_abs="0"/>
    </tripinfo>
    <tripinfo id="f_0_0.0" depart="1.00" departLane="A7B7_0" departPos="5.10" departSpeed="0.00" departDelay="0.00" arrival="150.00" arrivalLane="D7E7_0" arrivalPos="492.80" arrivalSpeed="13.51" duration="149.00" routeLength="1994.90" waitingTime="0.00" waitingCount="0" stopTime="0.00" timeLoss="8.97" rerouteNo="0" devices="tripinfo_f_0_0.0 emissions_f_0_0.0" vType="DEFAULT_VEHTYPE" speedFactor="1.03" vaporized="">
        <emissions CO_abs="2508.723551" CO2_abs="371463.531457" HC_abs="18.718265" PMx_abs="4.386486" NOx_abs="131.294016" fuel_abs="118480.490947" electricity_abs="0"/>
    </tripinfo>
    <tripinfo id="f_0_0.1" depart="4.00" departLane="A7B7_0" departPos="5.10" departSpeed="0.00" departDelay="1.00" arrival="154.00" arrivalLane="D7E7_0" arrivalPos="492.80" arrivalSpeed="13.46" duration="150.00" routeLength="1994.90" waitingTime="0.00" waitingCount="0" stopTime="0.00" timeLoss="9.62" rerouteNo="0" devices="tripinfo_f_0_0.1 emissions_f_0_0.1" vType="DEFAULT_VEHTYPE" speedFactor="1.03" vaporized="">
        <emissions CO_abs="2824.168062" CO2_abs="370106.132364" HC_abs="20.106537" PMx_abs="4.613849" NOx_abs="132.940017" fuel_abs="118047.438760" electricity_abs="0"/>
    </tripinfo>
    <tripinfo id="f_0_0.2" depart="8.00" departLane="A7B7_0" departPos="5.10" departSpeed="0.00" departDelay="0.00" arrival="156.00" arrivalLane="D7E7_0" arrivalPos="492.80" arrivalSpeed="15.89" duration="148.00" routeLength="1994.90" waitingTime="0.00" waitingCount="0" stopTime="0.00" timeLoss="22.71" rerouteNo="0" devices="tripinfo_f_0_0.2 emissions_f_0_0.2" vType="DEFAULT_VEHTYPE" speedFactor="1.15" vaporized="">
        <emissions CO_abs="3559.566277" CO2_abs="401144.029832" HC_abs="24.993010" PMx_abs="5.842327" NOx_abs="151.160979" fuel_abs="127946.535088" electricity_abs="0"/>
    </tripinfo>
    <tripinfo id="f_1_21.5" depart="25.00" departLane="G6G5_0" departPos="5.10" departSpeed="0.00" departDelay="0.00" arrival="158.00" arrivalLane="G4G3_0" arrivalPos="491.30" arrivalSpeed="14.52" duration="133.00" routeLength="1493.50" waitingTime="18.00" waitingCount="1" stopTime="0.00" timeLoss="32.02" rerouteNo="0" devices="tripinfo_f_1_21.5 emissions_f_1_21.5" vType="DEFAULT_VEHTYPE" speedFactor="1.06" vaporized="">
        <emissions CO_abs="6215.425923" CO2_abs="362944.468664" HC_abs="35.948878" PMx_abs="5.678118" NOx_abs="139.543179" fuel_abs="115764.006008" electricity_abs="0"/>
    </tripinfo>
    <tripinfo id="f_0_3.1" depart="25.00" departLane="C9C8_0" departPos="5.10" departSpeed="0.00" departDelay="2.00" arrival="159.00" arrivalLane="C7C6_0" arrivalPos="492.80" arrivalSpeed="13.65" duration="134.00" routeLength="1494.90" waitingTime="19.00" waitingCount="1" stopTime="0.00" timeLoss="31.90" rerouteNo="0" devices="tripinfo_f_0_3.1 emissions_f_0_3.1" vType="DEFAULT_VEHTYPE" speedFactor="1.06" vaporized="">
        <emissions CO_abs="6464.906437" CO2_abs="363126.799454" HC_abs="37.582548" PMx_abs="6.048353" NOx_abs="143.218090" fuel_abs="115821.898494" electricity_abs="0"/>
    </tripinfo>
    <tripinfo id="f_1_21.6" depart="28.00" departLane="G6G5_0" departPos="5.10" departSpeed="0.00" departDelay="2.00" arrival="160.00" arrivalLane="G4G3_0" arrivalPos="491.30" arrivalSpeed="14.25" duration="132.00" routeLength="1493.50" waitingTime="16.00" waitingCount="1" stopTime="0.00" timeLoss="33.90" rerouteNo="0" devices="tripinfo_f_1_21.6 emissions_f_1_21.6" vType="DEFAULT_VEHTYPE" speedFactor="1.10" vaporized="">
        <emissions CO_abs="6564.132100" CO2_abs="385945.797579" HC_abs="37.943074" PMx_abs="6.202713" NOx_abs="149.874907" fuel_abs="123100.180079" electricity_abs="0"/>
    </tripinfo>
    <tripinfo id="f_1_20.8" depart="25.00" departLane="G2G3_0" departPos="5.10" departSpeed="0.00" departDelay="3.00" arrival="162.00" arrivalLane="G4G5_0" arrivalPos="492.80" arrivalSpeed="13.23" duration="137.00" routeLength="1494.90" waitingTime="17.00" waitingCount="1" stopTime="0.00" timeLoss="31.20" rerouteNo="0" devices="tripinfo_f_1_20.8 emissions_f_1_20.8" vType="DEFAULT_VEHTYPE" speedFactor="1.02" vaporized="">
        <emissions CO_abs="6156.101704" CO2_abs="362839.475254" HC_abs="35.723520" PMx_abs="5.574961" NOx_abs="139.774523" fuel_abs="115730.561174" electricity_abs="0"/>
    </tripinfo>
    <tripinfo id="f_0_8.3" depart="29.00" departLane="G5G6_0" departPos="5.10" departSpeed="0.00" departDelay="0.00" arrival="164.00" arrivalLane="G7G8_0" arrivalPos="491.30" arrivalSpeed="12.56" duration="135.00" routeLength="1493.50" waitingTime="13.00" waitingCount="1" stopTime="0.00" timeLoss="26.27" rerouteNo="0" devices="tripinfo_f_0_8.3 emissions_f_0_8.3" vType="DEFAULT_VEHTYPE" speedFactor="0.99" vaporized="">
        <emissions CO_abs="5399.054215" CO2_abs="352004.430273" HC_abs="32.062104" PMx_abs="5.241854" NOx_abs="134.316791" fuel_abs="112274.486895" electricity_abs="0"/>
    </tripinfo>
    <tripinfo id="f_1_21.7" depart="31.00" departLane="G6G5_0" departPos="5.10" departSpeed="0.00" departDelay="2.00" arrival="165.00" arrivalLane="G4G3_0" arrivalPos="491.30" arrivalSpeed="13.84" duration="134.00" routeLength="1493.50" waitingTime="13.00" waitingCount="1" stopTime="0.00" timeLoss="28.69" rerouteNo="0" devices="tripinfo_f_1_21.7 emissions_f_1_21.7" vType="DEFAULT_VEHTYPE" speedFactor="1.02" vaporized="">
        <emissions CO_abs="5676.835174" CO2_abs="361393.816039" HC_abs="33.671871" PMx_abs="5.512329" NOx_abs="139.062969" fuel_abs="115269.233621" electricity_abs="0"/>
    </tripinfo>
    <tripinfo id="f_0_8.4" depart="35.00" departLane="G5G6_0" departPos="5.10" departSpeed="0.00" departDelay="0.00" arrival="166.00" arrivalLane="G7G8_0" arrivalPos="491.30" arrivalSpeed="15.21" duration="131.00" routeLength="1493.50" waitingTime="12.00" waitingCount="1" stopTime="0.00" timeLoss="37.96" rerouteNo="0" devices="tripinfo_f_0_8.4 emissions_f_0_8.4" vType="DEFAULT_VEHTYPE" speedFactor="1.16" vaporized="">
        <emissions CO_abs="6088.104392" CO2_abs="379738.131885" HC_abs="35.904220" PMx_abs="6.275138" NOx_abs="149.621733" fuel_abs="121119.752654" electricity_abs="0"/>
    </tripinfo>
    <tripinfo id="f_1_21.8" depart="35.00" departLane="G6G5_0" departPos="5.10" departSpeed="0.00" departDelay="0.00" arrival="167.00" arrivalLane="G4G3_0" arrivalPos="491.30" arrivalSpeed="15.22" duration="132.00" routeLength="1493.50" waitingTime="13.00" waitingCount="1" stopTime="0.00" timeLoss="37.11" rerouteNo="0" devices="tripinfo_f_1_21.8 emissions_f_1_21.8" vType="DEFAULT_VEHTYPE" speedFactor="1.14" vaporized="">
        <emissions CO_abs="6393.063488" CO2_abs="387825.515644" HC_abs="37.486380" PMx_abs="6.409178" NOx_abs="152.388982" fuel_abs="123699.399348" electricity_abs="0"/>
    </tripinfo>
    <tripinfo id="f_0_8.5" depart="47.00" departLane="G5G6_0" departPos="5.10" departSpeed="0.00" departDelay="0.00" arrival="168.00" arrivalLane="G7G8_0" arrivalPos="491.30" arrivalSpeed="14.01" duration="121.00" routeLength="1493.50" waitingTime="0.00" waitingCount="0" stopTime="0.00" timeLoss="19.10" rerouteNo="0" devices="tripinfo_f_0_8.5 emissions_f_0_8.5" vType="DEFAULT_VEHTYPE" speedFactor="1.06" vaporized="">