<?xml version="1.0" encoding="UTF-8"?>

<!-- generated on 2024-08-22 13:35:49 by Eclipse SUMO sumo Version 1.17.0
<configuration xmlns:xsi="http://www.w3.org/2001/XMLSchema-instance" xsi:noNamespaceSchemaLocation="http://sumo.dlr.de/xsd/sumoConfiguration.xsd">

    <input>
        <net-file value="double_static_offset.net.xml"/>
        <route-files value="double_1.rou.xml"/>
    </input>

    <output>
        <tripinfo-output value="emissions_test\z_static_offset_1_emissions_tripinfo_double.xml"/>
    </output>

    <processing>
        <time-to-teleport value="-1"/>
    </processing>

    <emissions>
        <device.emissions.probability value="1.0"/>
    </emissions>

    <traci_server>
        <remote-port value="58211"/>
    </traci_server>

</configuration>
-->

<tripinfos xmlns:xsi="http://www.w3.org/2001/XMLSchema-instance" xsi:noNamespaceSchemaLocation="http://sumo.dlr.de/xsd/tripinfo_file.xsd">
    <tripinfo id="f_0_16.0" depart="1.00" departLane="D2D3_0" departPos="5.10" departSpeed="0.00" departDelay="0.00" arrival="109.00" arrivalLane="D4D5_0" arrivalPos="492.80" arrivalSpeed="14.13" duration="108.00" routeLength="1494.90" waitingTime="0.00" waitingCount="0" stopTime="0.00" timeLoss="8.35" rerouteNo="0" devices="tripinfo_f_0_16.0 emissions_f_0_16.0" vType="DEFAULT_VEHTYPE" speedFactor="1.08" vaporized="">
        <emissions CO_abs="2247.779204" CO2_abs="283294.879663" HC_abs="15.802534" PMx_abs="3.698175" NOx_abs="102.718500" fuel_abs="90358.349076" electricity_abs="0"/>
    </tripinfo>
    <tripinfo id="f_0_17.0" depart="0.00" departLane="D6D5_0" departPos="5.10" departSpeed="0.00" departDelay="0.00" arrival="123.00" arrivalLane="D4D3_0" arrivalPos="491.30" arrivalSpeed="11.98" duration="123.00" routeLength="1493.50" waitingTime="0.00" waitingCount="0" stopTime="0.00" timeLoss="8.11" rerouteNo="0" devices="tripinfo_f_0_17.0 emissions_f_0_17.0" vType="DEFAULT_VEHTYPE" speedFactor="0.94" vaporized="">
        <emissions CO_abs="2777.528541" CO2_abs="291627.600605" HC_abs="18.913550" PMx_abs="3.906353" NOx_abs="108.680750" fuel_abs="93016.289174" electricity_abs="0"/>
    </tripinfo>
    <tripinfo id="f_0_8.0" depart="0.00" departLane="G5G6_0" departPos="5.10" departSpeed="0.00" departDelay="0.00" arrival="128.00" arrivalLane="G7G8_0" arrivalPos="491.30" arrivalSpeed="14.70" duration="128.00" routeLength="1493.50" waitingTime="15.00" waitingCount="1" stopTime="0.00" timeLoss="26.51" rerouteNo="0" devices="tripinfo_f_0_8.0 emissions_f_0_8.0" vType="DEFAULT_VEHTYPE" speedFactor="1.06" vaporized="">
        <emissions CO_abs="5776.877774" CO2_abs="360526.120793" HC_abs="34.116861" PMx_abs="5.816576" NOx_abs="140.631664" fuel_abs="114992.178117" electricity_abs="0"/>
    </tripinfo>
    <tripinfo id="f_0_9.0" depart="2.00" departLane="G9G8_0" departPos="5.10" departSpeed="0.00" departDelay="0.00" arrival="130.00" arrivalLane="G7G6_0" arrivalPos="492.80" arrivalSpeed="13.04" duration="128.00" routeLength="1494.90" waitingTime="10.00" waitingCount="1" stopTime="0.00" timeLoss="23.14" rerouteNo="0" devices="tripinfo_f_0_9.0 emissions_f_0_9.0" vType="DEFAULT_VEHTYPE" speedFactor="1.03" vaporized="">
        <emissions CO_abs="4813.046534" CO2_abs="339095.460096" HC_abs="29.177199" PMx_abs="5.121356" NOx_abs="129.587557" fuel_abs="108156.750672" electricity_abs="0"/>
    </tripinfo>
    <tripinfo id="f_0_8.1" depart="3.00" departLane="G5G6_0" departPos="5.10" departSpeed="0.00" departDelay="0.00" arrival="131.00" arrivalLane="G7G8_0" arrivalPos="491.30" arrivalSpeed="13.77" duration="128.00" routeLength="1493.50" waitingTime="10.00" waitingCount="1" stopTime="0.00" timeLoss="24.79" rerouteNo="0" devices="tripinfo_f_0_8.1 emissions_f_0_8.1" vType="DEFAULT_VEHTYPE" speedFactor="1.05" vaporized="">
        <emissions CO_abs="5103.078259" CO2_abs="344404.842527" HC_abs="30.440381" PMx_abs="5.244082" NOx_abs="131.636503" fuel_abs="109850.285937" electricity_abs="0"/>
    </tripinfo>
    <tripinfo id="f_0_8.2" depart="6.00" departLane="G5G6_0" departPos="5.10" departSpeed="0.00" departDelay="0.00" arrival="133.00" arrivalLane="G7G8_0" arrivalPos="491.30" arrivalSpeed="13.33" duration="127.00" routeLength="1493.50" waitingTime="8.00" waitingCount="1" stopTime="0.00" timeLoss="21.55" rerouteNo="0" devices="tripinfo_f_0_8.2 emissions_f_0_8.2" vType="DEFAULT_VEHTYPE" speedFactor="1.03" vaporized="">
        <emissions CO_abs="4780.281355" CO2_abs="340931.152707" HC_abs="29.214953" PMx_abs="5.167988" NOx_abs="130.357037" fuel_abs="108742.221207" electricity_abs="0"/>
    </tripinfo>
    <tripinfo id="f_0_8.3" depart="9.00" departLane="G5G6_0" departPos="5.10" departSpeed="0.00" departDelay="2.00" arrival="139.00" arrivalLane="G7G8_0" arrivalPos="491.30" arrivalSpeed="11.66" duration="130.00" routeLength="1493.50" waitingTime="0.00" waitingCount="0" stopTime="0.00" timeLoss="13.55" rerouteNo="0" devices="tripinfo_f_0_8.3 emissions_f_0_8.3" vType="DEFAULT_VEHTYPE" speedFactor="0.93" vaporized="">
        <emissions CO_abs="3241.223065" CO2_abs="315710.803797" HC_abs="21.602340" PMx_abs="4.183837" NOx_abs="117.922450" fuel_abs="100697.929188" electricity_abs="0"/>
    </tripinfo>
    <tripinfo id="f_0_9.1" depart="5.00" departLane="G9G8_0" departPos="5.10" departSpeed="0.00" departDelay="0.00" arrival="141.00" arrivalLane="G7G6_0" arrivalPos="492.80" arrivalSpeed="11.33" duration="136.00" routeLength="1494.90" waitingTime="0.00" waitingCount="0" stopTime="0.00" timeLoss="9.69" rerouteNo="0" devices="tripinfo_f_0_9.1 emissions_f_0_9.1" vType="DEFAULT_VEHTYPE" speedFactor="0.86" vaporized="">
        <emissions CO_abs="3182.239553" CO2_abs="295166.365028" HC_abs="21.110478" PMx_abs="3.800042" NOx_abs="110.271552" fuel_abs="94145.357312" electricity_abs="0"/>
    </tripinfo>
    <tripinfo id="f_0_8.4" depart="12.00" departLane="G5G6_0" departPos="5.10" departSpeed="0.00" departDelay="2.00" arrival="141.00" arrivalLane="G7G8_0" arrivalPos="491.30" arrivalSpeed="13.36" duration="129.00" routeLength="1493.50" waitingTime="0.00" waitingCount="0" stopTime="0.00" timeLoss="22.65" rerouteNo="0" devices="tripinfo_f_0_8.4 emissions_f_0_8.4" vType="DEFAULT_VEHTYPE" speedFactor="1.02" vaporized="">
        <emissions CO_abs="4258.004381" CO2_abs="349259.779805" HC_abs="27.135532" PMx_abs="5.479821" NOx_abs="136.514417" fuel_abs="111397.988312" electricity_abs="0"/>
    </tripinfo>
    <tripinfo id="f_0_9.2" depart="8.00" departLane="G9G8_0" departPos="5.10" departSpeed="0.00" departDelay="2.00" arrival="142.00" arrivalLane="G7G6_0" arrivalPos="492.80" arrivalSpeed="13.86" duration="134.00" routeLength="1494.90" waitingTime="0.00" waitingCount="0" stopTime="0.00" timeLoss="31.08" rerouteNo="0" devices="tripinfo_f_0_9.2 emissions_f_0_9.2" vType="DEFAULT_VEHTYPE" speedFactor="1.05" vaporized="">
        <emissions CO_abs="4129.157591" CO2_abs="342253.122772" HC_abs="26.582455" PMx_abs="5.104973" NOx_abs="132.787293" fuel_abs="109163.458442" electricity_abs="0"/>
    </tripinfo>
    <tripinfo id="f_0_9.3" depart="11.00" departLane="G9G8_0" departPos="5.10" departSpeed="0.00" departDelay="1.00" arrival="144.00" arrivalLane="G7G6_0" arrivalPos="492.80" arrivalSpeed="13.88" duration="133.00" routeLength="1494.90" waitingTime="0.00" waitingCount="0" stopTime="0.00" timeLoss="26.06" rerouteNo="0" devices="tripinfo_f_0_9.3 emissions_f_0_9.3" vType="DEFAULT_VEHTYPE" speedFactor="1.01" vaporized="">
        <emissions CO_abs="4249.840514" CO2_abs="348174.474112" HC_abs="27.272221" PMx_abs="5.355458" NOx_abs="136.170584" fuel_abs="111051.929464" electricity_abs="0"/>
    </tripinfo>
    <tripinfo id="f_0_8.5" depart="15.00" departLane="G5G6_0" departPos="5.10" departSpeed="0.00" departDelay="4.00" arrival="146.00" arrivalLane="G7G8_0" arrivalPos="491.30" arrivalSpeed="12.01" duration="131.00" routeLength="1493.50" waitingTime="0.00" waitingCount="0" stopTime="0.00" timeLoss="9.69" rerouteNo="0" devices="tripinfo_f_0_8.5 emissions_f_0_8.5" vType="DEFAULT_VEHTYPE" speedFactor="0.89" vaporized="">
        <emissions CO_abs="2973.074221" CO2_abs="301207.217274" HC_abs="20.202362" PMx_abs="3.764170" NOx_abs="111.284159" fuel_abs="96072.108159" electricity_abs="0"/>
    </tripinfo>
    <tripinfo id="f_0_9.4" depart="14.00" departLane="G9G8_0" departPos="5.10" departSpeed="0.00" departDelay="2.00" arrival="146.00" arrivalLane="G7G6_0" arrivalPos="492.80" arrivalSpeed="11.81" duration="132.00" routeLength="1494.90" waitingTime="0.00" waitingCount="0" stopTime="0.00" timeLoss="14.20" rerouteNo="0" devices="tripinfo_f_0_9.4 emissions_f_0_9.4" vType="DEFAULT_VEHTYPE" speedFactor="0.92" vaporized="">
        <emissions CO_abs="3716.495239" CO2_abs="327775.758772" HC_abs="24.353299" PMx_abs="4.724671" NOx_abs="125.810645" fuel_abs="104545.871680" electricity_abs="0"/>
    </tripinfo>
    <tripinfo id="f_0_9.5" depart="17.00" departLane="G9G8_0" departPos="5.10" departSpeed="0.00" departDelay="4.00" arrival="148.00" arrivalLane="G7G6_0" arrivalPos="492.80" arrivalSpeed="12.23" duration="131.00" routeLength="1494.90" waitingTime="0.00" waitingCount="0" stopTime="0.00" timeLoss="14.69" rerouteNo="0" devices="tripinfo_f_0_9.5 emissions_f_0_9.5" vType="DEFAULT_VEHTYPE" speedFactor="0.93" vaporized="">
        <emissions CO_abs="3736.427851" CO2_abs="342069.864069" HC_abs="24.543787" PMx_abs="4.825544" NOx_abs="130.152283" fuel_abs="109105.101354" electricity_abs="0"/>
    </tripinfo>
    <tripinfo id="f_0_9.6" depart="20.00" departLane="G9G8_0" departPos="5.10" departSpeed="0.00" departDelay="1.00" arrival="164.00" arrivalLane="G7G6_0" arrivalPos="492.80" arrivalSpeed="13.22" duration="144.00" routeLength="1494.90" waitingTime="21.00" waitingCount="1" stopTime="0.00" timeLoss="34.98" rerouteNo="0" devices="tripinfo_f_0_9.6 emissions_f_0_9.6" vType="DEFAULT_VEHTYPE" speedFactor="0.99" vaporized="">
        <emissions CO_abs="6996.217536" CO2_abs="380742.157318" HC_abs="40.222144" PMx_abs="6.084738" NOx_abs="148.958188" fuel_abs="121440.838245" electricity_abs="0"/>
    </tripinfo>
    <tripinfo id="f_0_9.7" depart="25.00" departLane="G9G8_0" departPos="5.10" departSpeed="0.00" departDelay="0.00" arrival="165.00" arrivalLane="G7G6_0" arrivalPos="492.80" arrivalSpeed="14.31" duration="140.00" routeLength="1494.90" waitingTime="20.00" waitingCount="1" stopTime="0.00" timeLoss="35.41" rerouteNo="0" devices="tripinfo_f_0_9.7 emissions_f_0_9.7" vType="DEFAULT_VEHTYPE" speedFactor="1.03" vaporized="">
        <emissions CO_abs="6945.161679" CO2_abs="384315.578211" HC_abs="40.088409" PMx_abs="6.271664" NOx_abs="150.800113" fuel_abs="122580.399122" electricity_abs="0"/>
    </tripinfo>
    <tripinfo id="f_0_9.8" depart="28.00" departLane="G9G8_0" departPos="5.10" departSpeed="0.00" departDelay="0.00" arrival="167.00" arrivalLane="G7G6_0" arrivalPos="492.80" arrivalSpeed="14.26" duration="139.00" routeLength="1494.90" waitingTime="18.00" waitingCount="1" stopTime="0.00" timeLoss="34.90" rerouteNo="0" devices="tripinfo_f_0_9.8 emissions_f_0_9.8" vType="DEFAULT_VEHTYPE" speedFactor="1.04" vaporized="">
        <emissions CO_abs="6880.698152" CO2_abs="388777.851193" HC_abs="39.841748" PMx_abs="6.325132" NOx_abs="152.599045" fuel_abs="124003.590197" electricity_abs="0"/>
    </tripinfo>
    <tripinfo id="f_0_8.6" depart="18.00" departLane="G5G6_0" departPos="5.10" departSpeed="0.00" departDelay="6.00" arrival="174.00" arrivalLane="G7G8_0" arrivalPos="491.30" arrivalSpeed="11.50" duration="156.00" routeLength="1493.50" waitingTime="18.00" waitingCount="1" stopTime="0.00" timeLoss="32.11" rerouteNo="0" devices="tripinfo_f_0_8.6 emissions_f_0_8.6" vType="DEFAULT_VEHTYPE" speedFactor="0.87" vaporized="">
        <emissions CO_abs="6744.550334" CO2_abs="363357.372576" HC_abs="38.955737" PMx_abs="5.435002" NOx_abs="141.071977" fuel_abs="115896.246098" electricity_abs="0"/>
    </tripinfo>
    <tripinfo id="f_0_1.0" depart="1.00" departLane="F7E7_0" departPos="5.10" departSpeed="0.00" departDelay="0.00" arrival="175.00" arrivalLane="C7B7_0" arrivalPos="491.30" arrivalSpeed="13.44" duration="174.00" routeLength="1993.50" waitingTime="12.00" waitingCount="2" stopTime="0.00" timeLoss="31.94" rerouteNo="0" devices="tripinfo_f_0_1.0 emissions_f_0_1.0" vType="DEFAULT_VEHTYPE" speedFactor="1.01" vaporized="">
        <emissions CO_abs="6395.122182" CO2_abs="467718.846351" HC_abs="38.678849" PMx_abs="6.575287" NOx_abs="175.275113" fuel_abs="149182.422825" electricity_abs="0"/>
    </tripinfo>
    <tripinfo id="f_0_8.7" depart="21.00" departLane="G5G6_0" departPos="5.10" departSpeed="0.00" departDelay="6.00" arrival="175.00" arrivalLane="G7G8_0" arrivalPos="491.30" arrivalSpeed="13.95" duration="154.00" routeLength="1493.50" waitingTime="17.00" waitingCount="1" stopTime="0.00" timeLoss="62.65" rerouteNo="0" devices="tripinfo_f_0_8.7 emissions_f_0_8.7" vType="DEFAULT_VEHTYPE" speedFactor="1.18" vaporized="">
        <emissions CO_abs="7638.122480" CO2_abs="408028.231335" HC_abs="44.119508" PMx_abs="6.791251" NOx_abs="163.210166" fuel_abs="130143.673664" electricity_abs="0"/>
    </tripinfo>
    <tripinfo id="f_0_1.1" depart="7.00" departLane="F7E7_0" departPos="5.10" departSpeed="0.00" departDelay="0.00" arrival="178.00" arrivalLane="C7B7_0" arrivalPos="491.30" arrivalSpeed="13.06" duration="171.00" routeLength="1993.50" waitingTime="3.00" waitingCount="2" stopTime="0.00" timeLoss="25.89" rerouteNo="0" devices="tripinfo_f_0_1.1 emissions_f_0_1.1" vType="DEFAULT_VEHTYPE" speedFactor="0.99" vaporized="">
        <emissions CO_abs="5722.965283" CO2_abs="454102.714529" HC_abs="35.940285" PMx_abs="6.775771" NOx_abs="174.216021" fuel_abs="144838.677435" electricity_abs="0"/>
    </tripinfo>
    <tripinfo id="f_0_17.1" depart="4.00" departLane="D6D5_0" departPos="5.10" departSpeed="0.00" departDelay="0.00" arrival="180.00" arrivalLane="D4D3_0" arrivalPos="491.30" arrivalSpeed="11.62" duration="176.00" routeLength="1493.50" waitingTime="40.00" waitingCount="1" stopTime="0.00" timeLoss="54.63" rerouteNo="0" devices="tripinfo_f_0_17.1 emissions_f_0_17.1" vType="DEFAULT_VEHTYPE" speedFactor="0.89" vaporized="">
        <emissions CO_abs="10393.056751" CO2_abs="432917.871603" HC_abs="57.121426" PMx_abs="6.999975" NOx_abs="171.488994" fuel_abs="138084.115186" electricity_abs="0"/>
    </tripinfo>
    <tripinfo id="f_0_1.2" depart="11.00" departLane="F7E7_0" departPos="5.10" departSpeed="0.00" departDelay="0.00" arrival="181.00" arrivalLane="C7B7_0" arrivalPos="491.30" arrivalSpeed="13.45" duration="170.00" routeLength="1993.50" waitingTime="0.00" waitingCount="0" stopTime="0.00" timeLoss="21.87" rerouteNo="0" devices="tripinfo_f_0_1.2 emissions_f_0_1.2" vType="DEFAULT_VEHTYPE" speedFactor="0.97" vaporized="">
        <emissions CO_abs="4705.946804" CO2_abs="432344.744951" HC_abs="30.219616" PMx_abs="5.808277" NOx_abs="160.680699" fuel_abs="137899.111174" electricity_abs="0"/>
    </tripinfo>
    <tripinfo id="f_0_17.2" depart="7.00" departLane="D6D5_0" departPos="5.10" departSpeed="0.00" departDelay="2.00" arrival="182.00" arrivalLane="D4D3_0" arrivalPos="491.30" arrivalSpeed="15.07" duration="175.00" routeLength="1493.50" waitingTime="39.00" waitingCount="1" stopTime="0.00" timeLoss="75.91" rerouteNo="0" devices="tripinfo_f_0_17.2 emissions_f_0_17.2" vType="DEFAULT_VEHTYPE" speedFactor="1.09" vaporized="">
        <emissions CO_abs="11377.452449" CO2_abs="471590.936657" HC_abs="62.595018" PMx_abs="8.491921" NOx_abs="193.039560" fuel_abs="150418.331824" electricity_abs="0"/>
    </tripinfo>
    <tripinfo id="f_0_1.3" depart="18.00" departLane="F7E7_0" departPos="5.10" departSpeed="0.00" departDelay="0.00" arrival="182.00" arrivalLane="C7B7_0" arrivalPos="491.30" arrivalSpeed="13.59" duration="164.00" routeLength="1993.50" waitingTime="0.00" waitingCount="0" stopTime="0.00" timeLoss="21.08" rerouteNo="0" devices="tripinfo_f_0_1.3 emissions_f_0_1.3" vType="DEFAULT_VEHTYPE" speedFactor="1.01" vaporized="">
        <emissions CO_abs="4661.779045" CO2_abs="431297.262935" HC_abs="30.267537" PMx_abs="6.096523" NOx_abs="162.735910" fuel_abs="137564.630364" electricity_abs="0"/>
    </tripinfo>
    <tripinfo id="f_0_16.1" depart="4.00" departLane="D2D3_0" departPos="5.10" departSpeed="0.00" departDelay="2.00" arrival="183.00" arrivalLane="D4D5_0" arrivalPos="492.80" arrivalSpeed="10.97" duration="179.00" routeLength="1494.90" waitingTime="34.00" waitingCount="1" stopTime="0.00" timeLoss="48.88" rerouteNo="0" devices="tripinfo_f_0_16.1 emissions_f_0_16.1" vType="DEFAULT_VEHTYPE" speedFactor="0.83" vaporized="">
        <emissions CO_abs="9805.716839" CO2_abs="417889.399423" HC_abs="54.205249" PMx_abs="6.618866" NOx_abs="165.205907" fuel_abs="133290.607116" electricity_abs="0"/>
    </tripinfo>
    <tripinfo id="f_0_17.3" depart="12.00" departLane="D6D5_0" departPos="5.10" departSpeed="0.00" departDelay="0.00" arrival="184.00" arrivalLane="D4D3_0" arrivalPos="491.30" arrivalSpeed="14.95" duration="172.00" routeLength="1493.50" waitingTime="38.00" waitingCount="1" stopTime="0.00" timeLoss="76.16" rerouteNo="0" devices="tripinfo_f_0_17.3 emissions_f_0_17.3" vType="DEFAULT_VEHTYPE" speedFactor="1.13" vaporized="">
        <emissions CO_abs="11732.034366" CO2_abs="486089.724133" HC_abs="64.469449" PMx_abs="8.895238" NOx_abs="199.599829" fuel_abs="155042.686072" electricity_abs="0"/>
    </tripinfo>
    <tripinfo id="f_0_1.4" depart="21.00" departLane="F7E7_0" departPos="5.10" departSpeed="0.00" departDelay="2.00" arrival="184.00" arrivalLane="C7B7_0" arrivalPos="491.30" arrivalSpeed="16.17" duration="163.00" routeLength="1993.50" waitingTime="0.00" waitingCount="0" stopTime="0.00" timeLoss="39.87" rerouteNo="0" devices="tripinfo_f_0_1.4 emissions_f_0_1.4" vType="DEFAULT_VEHTYPE" speedFactor="1.17" vaporized="">
        <emissions CO_abs="5600.451185" CO2_abs="476018.640871" HC_abs="35.899694" PMx_abs="7.497580" NOx_abs="185.415359" fuel_abs="151828.146268" electricity_abs="0"/>
    </tripinfo>
    <tripinfo id="f_0_16.2" depart="7.00" departLane="D2D3_0" departPos="5.10" departSpeed="0.00" departDelay="0.00" arrival="185.00" arrivalLane="D4D5_0" arrivalPos="492.80" arrivalSpeed="11.28" duration="178.00" routeLength="1494.90" waitingTime="32.00" waitingCount="1" stopTime="0.00" timeLoss="54.72" rerouteNo="0" devices="tripinfo_f_0_16.2 emissions_f_0_16.2" vType="DEFAULT_VEHTYPE" speedFactor="0.88" vaporized="">
        <emissions CO_abs="10260.334144" CO2_abs="438322.393179" HC_abs="56.807077" PMx_abs="7.355393" NOx_abs="176.292501" fuel_abs="139807.414069" electricity_abs="0"/>
    </tripinfo>
    <tripinfo id="f_0_17.4" depart="22.00" departLane="D6D5_0" departPos="5.10" departSpeed="0.00" departDelay="0.00" arrival="185.00" arrivalLane="D4D3_0" arrivalPos="491.30" arrivalSpeed="16.04" duration="163.00" routeLength="1493.50" waitingTime="36.00" waitingCount="1" stopTime="0.00" timeLoss="71.54" rerouteNo="0" devices="tripinfo_f_0_17.4 emissions_f_0_17.4" vType="DEFAULT_VEHTYPE" speedFactor="1.18" vaporized="">
        <emissions CO_abs="11192.746937" CO2_abs="473502.317721" HC_abs="61.528983" PMx_abs="8.698785" NOx_abs="193.472043" fuel_abs="151027.644337" electricity_abs="0"/>
    </tripinfo>
    <tripinfo id="f_0_16.3" depart="10.00" departLane="D2D3_0" departPos="5.10" departSpeed="0.00" departDelay="1.00" arrival="186.00" arrivalLane="D4D5_0" arrivalPos="492.80" arrivalSpeed="11.80" duration="176.00" routeLength="1494.90" waitingTime="32.00" waitingCount="1" stopTime="0.00" timeLoss="61.04" rerouteNo="0" devices="tripinfo_f_0_16.3 emissions_f_0_16.3" vType="DEFAULT_VEHTYPE" speedFactor="0.94" vaporized="">
        <emissions CO_abs="10630.012149" CO2_abs="454398.610825" HC_abs="58.886817" PMx_abs="8.040910" NOx_abs="185.624740" fuel_abs="144934.594028" electricity_abs="0"/>
    </tripinfo>
    <tripinfo id="f_0_17.5" depart="25.00" departLane="D6D5_0" departPos="5.10" departSpeed="0.00" departDelay="2.00" arrival="187.00" arrivalLane="D4D3_0" arrivalPos="491.30" arrivalSpeed="14.80" duration="162.00" routeLength="1493.50" waitingTime="36.00" waitingCount="1" stopTime="0.00" timeLoss="63.86" rerouteNo="0" devices="tripinfo_f_0_17.5 emissions_f_0_17.5" vType="DEFAULT_VEHTYPE" speedFactor="1.10" vaporized="">
        <emissions CO_abs="10836.392139" CO2_abs="458968.465820" HC_abs="59.434921" PMx_abs="8.181942" NOx_abs="185.275845" fuel_abs="146392.252854" electricity_abs="0"/>
    </tripinfo>
    <tripinfo id="f_0_16.4" depart="13.00" departLane="D2D3_0" departPos="5.10" departSpeed="0.00" departDelay="1.00" arrival="188.00" arrivalLane="D4D5_0" arrivalPos="492.80" arrivalSpeed="12.24" duration="175.00" routeLength="1494.90" waitingTime="32.00" waitingCount="1" stopTime="0.00" timeLoss="61.34" rerouteNo="0" devices="tripinfo_f_0_16.4 emissions_f_0_16.4" vType="DEFAULT_VEHTYPE" speedFactor="0.95" vaporized="">
        <emissions CO_abs="10603.323522" CO2_abs="458549.137223" HC_abs="58.810366" PMx_abs="8.022188" NOx_abs="186.427310" fuel_abs="146258.485725" electricity_abs="0"/>
    </tripinfo>
    <tripinfo id="f_0_17.6" depart="29.00" departLane="D6D5_0" departPos="5.10" departSpeed="0.00" departDelay="0.00" arrival="189.00" arrivalLane="D4D3_0" arrivalPos="491.30" arrivalSpeed="14.83" duration="160.00" routeLength="1493.50" waitingTime="31.00" waitingCount="2" stopTime="0.00" timeLoss="60.28" rerouteNo="0" devices="tripinfo_f_0_17.6 emissions_f_0_17.6" vType="DEFAULT_VEHTYPE" speedFactor="1.09" vaporized="">
        <emissions CO_abs="10953.945130" CO2_abs="494861.629676" HC_abs="61.034103" PMx_abs="9.020682" NOx_abs="202.043764" fuel_abs="157839.990504" electricity_abs="0"/>
    </tripinfo>
    <tripinfo id="f_0_16.5" depart="16.00" departLane="D2D3_0" departPos="5.10" departSpeed="0.00" departDelay="1.00" arrival="190.00" arrivalLane="D4D5_0" arrivalPos="492.80" arrivalSpeed="15.50" duration="174.00" routeLength="1494.90" waitingTime="33.00" waitingCount="1" stopTime="0.00" timeLoss="80.05" rerouteNo="0" devices="tripinfo_f_0_16.5 emissions_f_0_16.5" vType="DEFAULT_VEHTYPE" speedFactor="1.15" vaporized="">
        <emissions CO_abs="11772.275163" CO2_abs="517437.340399" HC_abs="65.687184" PMx_abs="9.763285" NOx_abs="215.492878" fuel_abs="165040.459403" electricity_abs="0"/>
    </tripinfo>
    <tripinfo id="f_0_16.6" depart="24.00" departLane="D2D3_0" departPos="5.10" departSpeed="0.00" departDelay="0.00" arrival="192.00" arrivalLane="D4D5_0" arrivalPos="492.80" arrivalSpeed="11.84" duration="168.00" routeLength="1494.90" waitingTime="24.00" waitingCount="2" stopTime="0.00" timeLoss="48.01" rerouteNo="0" devices="tripinfo_f_0_16.6 emissions_f_0_16.6" vType="DEFAULT_VEHTYPE" speedFactor="0.90" vaporized="">
        <emissions CO_abs="9417.039316" CO2_abs="435785.138569" HC_abs="52.784186" PMx_abs="7.404697" NOx_abs="175.512861" fuel_abs="138997.548028" electricity_abs="0"/>
    </tripinfo>
    <tripinfo id="f_0_16.7" depart="27.00" departLane="D2D3_0" departPos="5.10" departSpeed="0.00" departDelay="1.00" arrival="194.00" arrivalLane="D4D5_0" arrivalPos="492.80" arrivalSpeed="15.10" duration="167.00" routeLength="1494.90" waitingTime="21.00" waitingCount="2" stopTime="0.00" timeLoss="67.60" rerouteNo="0" devices="tripinfo_f_0_16.7 emissions_f_0_16.7" vType="DEFAULT_VEHTYPE" speedFactor="1.09" vaporized="">
        <emissions CO_abs="9983.049605" CO2_abs="467042.947310" HC_abs="56.192946" PMx_abs="8.281141" NOx_abs="190.410176" fuel_abs="148967.034830" electricity_abs="0"/>
    </tripinfo>
    <tripinfo id="f_0_16.8" depart="30.00" departLane="D2D3_0" departPos="5.10" departSpeed="0.00" departDelay="2.00" arrival="195.00" arrivalLane="D4D5_0" arrivalPos="492.80" arrivalSpeed="13.60" duration="165.00" routeLength="1494.90" waitingTime="20.00" waitingCount="2" stopTime="0.00" timeLoss="61.81" rerouteNo="0" devices="tripinfo_f_0_16.8 emissions_f_0_16.8" vType="DEFAULT_VEHTYPE" speedFactor="1.04" vaporized="">
        <emissions CO_abs="9781.666438" CO2_abs="467245.788137" HC_abs="55.254772" PMx_abs="8.276676" NOx_abs="190.450224" fuel_abs="149031.589745" electricity_abs="0"/>
    </tripinfo>
    <tripinfo id="f_0_17.7" depart="32.00" departLane="D6D5_0" departPos="5.10" departSpeed="0.00" departDelay="2.00" arrival="195.00" arrivalLane="D4D3_0" arrivalPos="491.30" arrivalSpeed="11.70" duration="163.00" routeLength="1493.50" waitingTime="13.00" waitingCount="2" stopTime="0.00" timeLoss="36.32" rerouteNo="0" devices="tripinfo_f_0_17.7 emissions_f_0_17.7" vType="DEFAULT_VEHTYPE" speedFactor="0.85" vaporized="">
        <emissions CO_abs="7297.468336" CO2_abs="391676.064919" HC_abs="42.055122" PMx_abs="5.721226" NOx_abs="151.384784" fuel_abs="124928.936806" electricity_abs="0"/>
    </tripinfo>
    <tripinfo id="f_0_17.8" depart="35.00" departLane="D6D5_0" departPos="5.10" departSpeed="0.00" departDelay="2.00" arrival="197.00" arrivalLane="D4D3_0" arrivalPos="491.30" arrivalSpeed="14.62" duration="162.00" routeLength="1493.50" waitingTime="11.00" waitingCount="2" stopTime="0.00" timeLoss="67.36" rerouteNo="0" devices="tripinfo_f_0_17.8 emissions_f_0_17.8" vType="DEFAULT_VEHTYPE" speedFactor="1.14" vaporized="">
        <emissions CO_abs="8470.142042" CO2_abs="433924.682006" HC_abs="48.664794" PMx_abs="7.442989" NOx_abs="175.985427" fuel_abs="138403.436432" electricity_abs="0"/>
    </tripinfo>
    <tripinfo id="f_0_1.5" depart="23.00" departLane="F7E7_0" departPos="5.10" departSpeed="0.00" departDelay="3.00" arrival="198.00" arrivalLane="C7B7_0" arrivalPos="491.30" arrivalSpeed="12.90" duration="175.00" routeLength="1993.50" waitingTime="17.00" waitingCount="1" stopTime="0.00" timeLoss="33.95" rerouteNo="0" devices="tripinfo_f_0_1.5 emissions_f_0_1.5" vType="DEFAULT_VEHTYPE" speedFactor="1.02" vaporized="">
        <emissions CO_abs="6979.686931" CO2_abs="452853.436859" HC_abs="41.099641" PMx_abs="6.694231" NOx_abs="171.747212" fuel_abs="144441.109579" electricity_abs="0"/>
    </tripinfo>
    <tripinfo id="f_0_16.9" depart="33.00" departLane="D2D3_0" departPos="5.10" departSpeed="0.00" departDelay="3.00" arrival="198.00" arrivalLane="D4D5_0" arrivalPos="492.80" arrivalSpeed="11.13" duration="165.00" routeLength="1494.90" waitingTime="15.00" waitingCount="2" stopTime="0.00" timeLoss="41.55" rerouteNo="0" devices="tripinfo_f_0_16.9 emissions_f_0_16.9" vType="DEFAULT_VEHTYPE" speedFactor="0.88" vaporized="">
        <emissions CO_abs="8311.244511" CO2_abs="407566.898758" HC_abs="47.161276" PMx_abs="6.733106" NOx_abs="163.181210" fuel_abs="129996.973369" electricity_abs="0"/>
    </tripinfo>
    <tripinfo id="f_0_16.10" depart="36.00" departLane="D2D3_0" departPos="5.10" departSpeed="0.00" departDelay="5.00" arrival="199.00" arrivalLane="D4D5_0" arrivalPos="492.80" arrivalSpeed="13.50" duration="163.00" routeLength="1494.90" waitingTime="14.00" waitingCount="2" stopTime="0.00" timeLoss="57.03" rerouteNo="0" devices="tripinfo_f_0_16.10 emissions_f_0_16.10" vType="DEFAULT_VEHTYPE" speedFactor="1.02" vaporized="">
        <emissions CO_abs="9059.022800" CO2_abs="449003.118982" HC_abs="51.490478" PMx_abs="7.876542" NOx_abs="182.807945" fuel_abs="143212.819446" electricity_abs="0"/>
    </tripinfo>
    <tripinfo id="f_0_17.9" depart="38.00" departLane="D6D5_0" departPos="5.10" departSpeed="0.00" departDelay="4.00" arrival="199.00" arrivalLane="D4D3_0" arrivalPos="491.30" arrivalSpeed="13.14" duration="161.00" routeLength="1493.50" waitingTime="10.00" waitingCount="2" stopTime="0.00" timeLoss="49.35" rerouteNo="0" devices="tripinfo_f_0_17.9 emissions_f_0_17.9" vType="DEFAULT_VEHTYPE" speedFactor="0.97" vaporized="">
        <emissions CO_abs="8455.640912" CO2_abs="441152.154007" HC_abs="48.718513" PMx_abs="7.608782" NOx_abs="178.819420" fuel_abs="140708.564712" electricity_abs="0"/>
    </tripinfo>
    <tripinfo id="f_0_17.10" depart="41.00" departLane="D6D5_0" departPos="5.10" departSpeed="0.00" departDelay="5.00" arrival="200.00" arrivalLane="D4D3_0" arrivalPos="491.30" arrivalSpeed="13.28" duration="159.00" routeLength="1493.50" waitingTime="9.00" waitingCount="2" stopTime="0.00" timeLoss="49.99" rerouteNo="0" devices="tripinfo_f_0_17.10 emissions_f_0_17.10" vType="DEFAULT_VEHTYPE" speedFactor="0.99" vaporized="">
        <emissions CO_abs="8682.214536" CO2_abs="458979.574008" HC_abs="49.987911" PMx_abs="8.020958" NOx_abs="186.706509" fuel_abs="146394.522732" electricity_abs="0"/>
    </tripinfo>
    <tripinfo id="f_0_16.11" depart="39.00" departLane="D2D3_0" departPos="5.10" departSpeed="0.00" departDelay="7.00" arrival="201.00" arrivalLane="D4D5_0" arrivalPos="492.80" arrivalSpeed="13.14" duration="162.00" routeLength="1494.90" waitingTime="12.00" waitingCount="2" stopTime="0.00" timeLoss="53.52" rerouteNo="0" devices="tripinfo_f_0_16.11 emissions_f_0_16.11" vType="DEFAULT_VEHTYPE" speedFactor="1.00" vaporized="">
        <emissions CO_abs="8923.483536" CO2_abs="458227.715133" HC_abs="51.189324" PMx_abs="7.868004" NOx_abs="185.311108" fuel_abs="146155.064308" electricity_abs="0"/>
    </tripinfo>
    <tripinfo id="f_0_1.6" depart="30.00" departLane="F7E7_0" departPos="5.10" departSpeed="0.00" departDelay="0.00" arrival="203.00" arrivalLane="C7B7_0" arrivalPos="491.30" arrivalSpeed="13.22" duration="173.00" routeLength="1993.50" waitingTime="13.00" waitingCount="1" stopTime="0.00" timeLoss="28.96" rerouteNo="0" devices="tripinfo_f_0_1.6 emissions_f_0_1.6" vType="DEFAULT_VEHTYPE" speedFactor="1.00" vaporized="">
        <emissions CO_abs="6018.443527" CO2_abs="450967.353521" HC_abs="36.820262" PMx_abs="6.224912" NOx_abs="168.741688" fuel_abs="143839.445522" electricity_abs="0"/>
    </tripinfo>
    <tripinfo id="f_0_17.11" depart="44.00" departLane="D6D5_0" departPos="5.10" departSpeed="0.00" departDelay="7.00" arrival="203.00" arrivalLane="D4D3_0" arrivalPos="491.30" arrivalSpeed="12.12" duration="159.00" routeLength="1493.50" waitingTime="7.00" waitingCount="2" stopTime="0.00" timeLoss="36.28" rerouteNo="0" devices="tripinfo_f_0_17.11 emissions_f_0_17.11" vType="DEFAULT_VEHTYPE" speedFactor="0.88" vaporized="">