<?xml version="1.0" encoding="UTF-8"?>

<!-- generated on 2024-08-22 13:35:23 by Eclipse SUMO sumo Version 1.17.0
<configuration xmlns:xsi="http://www.w3.org/2001/XMLSchema-instance" xsi:noNamespaceSchemaLocation="http://sumo.dlr.de/xsd/sumoConfiguration.xsd">

    <input>
        <net-file value="double_static.net.xml"/>
        <route-files value="double_1.rou.xml"/>
    </input>

    <output>
        <tripinfo-output value="emissions_test\z_static_1_emissions_tripinfo_double.xml"/>
    </output>

    <processing>
        <time-to-teleport value="-1"/>
    </processing>

    <emissions>
        <device.emissions.probability value="1.0"/>
    </emissions>

    <traci_server>
        <remote-port value="58203"/>
    </traci_server>

</configuration>
-->

<tripinfos xmlns:xsi="http://www.w3.org/2001/XMLSchema-instance" xsi:noNamespaceSchemaLocation="http://sumo.dlr.de/xsd/tripinfo_file.xsd">
    <tripinfo id="f_0_8.0" depart="0.00" departLane="G5G6_0" departPos="5.10" departSpeed="0.00" departDelay="0.00" arrival="128.00" arrivalLane="G7G8_0" arrivalPos="491.30" arrivalSpeed="14.70" duration="128.00" routeLength="1493.50" waitingTime="15.00" waitingCount="1" stopTime="0.00" timeLoss="26.51" rerouteNo="0" devices="tripinfo_f_0_8.0 emissions_f_0_8.0" vType="DEFAULT_VEHTYPE" speedFactor="1.06" vaporized="">
        <emissions CO_abs="5776.877774" CO2_abs="360526.120793" HC_abs="34.116861" PMx_abs="5.816576" NOx_abs="140.631664" fuel_abs="114992.178117" electricity_abs="0"/>
    </tripinfo>
    <tripinfo id="f_0_16.0" depart="1.00" departLane="D2D3_0" departPos="5.10" departSpeed="0.00" departDelay="0.00" arrival="128.00" arrivalLane="D4D5_0" arrivalPos="492.80" arrivalSpeed="14.31" duration="127.00" routeLength="1494.90" waitingTime="12.00" waitingCount="1" stopTime="0.00" timeLoss="27.01" rerouteNo="0" devices="tripinfo_f_0_16.0 emissions_f_0_16.0" vType="DEFAULT_VEHTYPE" speedFactor="1.08" vaporized="">
        <emissions CO_abs="5274.220711" CO2_abs="349879.858894" HC_abs="31.214114" PMx_abs="5.354880" NOx_abs="133.607978" fuel_abs="111596.597780" electricity_abs="0"/>
    </tripinfo>
    <tripinfo id="f_0_9.0" depart="2.00" departLane="G9G8_0" departPos="5.10" departSpeed="0.00" departDelay="0.00" arrival="130.00" arrivalLane="G7G6_0" arrivalPos="492.80" arrivalSpeed="13.04" duration="128.00" routeLength="1494.90" waitingTime="10.00" waitingCount="1" stopTime="0.00" timeLoss="23.14" rerouteNo="0" devices="tripinfo_f_0_9.0 emissions_f_0_9.0" vType="DEFAULT_VEHTYPE" speedFactor="1.03" vaporized="">
        <emissions CO_abs="4813.046534" CO2_abs="339095.460096" HC_abs="29.177199" PMx_abs="5.121356" NOx_abs="129.587557" fuel_abs="108156.750672" electricity_abs="0"/>
    </tripinfo>
    <tripinfo id="f_0_8.1" depart="3.00" departLane="G5G6_0" departPos="5.10" departSpeed="0.00" departDelay="0.00" arrival="131.00" arrivalLane="G7G8_0" arrivalPos="491.30" arrivalSpeed="13.77" duration="128.00" routeLength="1493.50" waitingTime="10.00" waitingCount="1" stopTime="0.00" timeLoss="24.79" rerouteNo="0" devices="tripinfo_f_0_8.1 emissions_f_0_8.1" vType="DEFAULT_VEHTYPE" speedFactor="1.05" vaporized="">
        <emissions CO_abs="5103.078259" CO2_abs="344404.842527" HC_abs="30.440381" PMx_abs="5.244082" NOx_abs="131.636503" fuel_abs="109850.285937" electricity_abs="0"/>
    </tripinfo>
    <tripinfo id="f_0_17.0" depart="0.00" departLane="D6D5_0" departPos="5.10" departSpeed="0.00" departDelay="0.00" arrival="133.00" arrivalLane="D4D3_0" arrivalPos="491.30" arrivalSpeed="12.06" duration="133.00" routeLength="1493.50" waitingTime="4.00" waitingCount="1" stopTime="0.00" timeLoss="18.20" rerouteNo="0" devices="tripinfo_f_0_17.0 emissions_f_0_17.0" vType="DEFAULT_VEHTYPE" speedFactor="0.94" vaporized="">
        <emissions CO_abs="4532.157977" CO2_abs="333150.446439" HC_abs="28.030073" PMx_abs="4.963612" NOx_abs="128.247209" fuel_abs="106260.485301" electricity_abs="0"/>
    </tripinfo>
    <tripinfo id="f_0_8.2" depart="6.00" departLane="G5G6_0" departPos="5.10" departSpeed="0.00" departDelay="0.00" arrival="133.00" arrivalLane="G7G8_0" arrivalPos="491.30" arrivalSpeed="13.33" duration="127.00" routeLength="1493.50" waitingTime="8.00" waitingCount="1" stopTime="0.00" timeLoss="21.55" rerouteNo="0" devices="tripinfo_f_0_8.2 emissions_f_0_8.2" vType="DEFAULT_VEHTYPE" speedFactor="1.03" vaporized="">
        <emissions CO_abs="4780.281355" CO2_abs="340931.152707" HC_abs="29.214953" PMx_abs="5.167988" NOx_abs="130.357037" fuel_abs="108742.221207" electricity_abs="0"/>
    </tripinfo>
    <tripinfo id="f_0_17.1" depart="4.00" departLane="D6D5_0" departPos="5.10" departSpeed="0.00" departDelay="0.00" arrival="137.00" arrivalLane="D4D3_0" arrivalPos="491.30" arrivalSpeed="11.08" duration="133.00" routeLength="1493.50" waitingTime="0.00" waitingCount="0" stopTime="0.00" timeLoss="11.51" rerouteNo="0" devices="tripinfo_f_0_17.1 emissions_f_0_17.1" vType="DEFAULT_VEHTYPE" speedFactor="0.89" vaporized="">
        <emissions CO_abs="3287.219200" CO2_abs="311472.263165" HC_abs="22.008730" PMx_abs="4.052150" NOx_abs="116.527975" fuel_abs="99346.146049" electricity_abs="0"/>
    </tripinfo>
    <tripinfo id="f_0_17.2" depart="7.00" departLane="D6D5_0" departPos="5.10" departSpeed="0.00" departDelay="2.00" arrival="139.00" arrivalLane="D4D3_0" arrivalPos="491.30" arrivalSpeed="14.12" duration="132.00" routeLength="1493.50" waitingTime="0.00" waitingCount="0" stopTime="0.00" timeLoss="32.92" rerouteNo="0" devices="tripinfo_f_0_17.2 emissions_f_0_17.2" vType="DEFAULT_VEHTYPE" speedFactor="1.09" vaporized="">
        <emissions CO_abs="4392.589424" CO2_abs="353800.754857" HC_abs="28.063170" PMx_abs="5.614643" NOx_abs="139.606783" fuel_abs="112846.302202" electricity_abs="0"/>
    </tripinfo>
    <tripinfo id="f_0_8.3" depart="9.00" departLane="G5G6_0" departPos="5.10" departSpeed="0.00" departDelay="2.00" arrival="139.00" arrivalLane="G7G8_0" arrivalPos="491.30" arrivalSpeed="11.66" duration="130.00" routeLength="1493.50" waitingTime="0.00" waitingCount="0" stopTime="0.00" timeLoss="13.55" rerouteNo="0" devices="tripinfo_f_0_8.3 emissions_f_0_8.3" vType="DEFAULT_VEHTYPE" speedFactor="0.93" vaporized="">
        <emissions CO_abs="3241.223065" CO2_abs="315710.803797" HC_abs="21.602340" PMx_abs="4.183837" NOx_abs="117.922450" fuel_abs="100697.929188" electricity_abs="0"/>
    </tripinfo>
    <tripinfo id="f_0_9.1" depart="5.00" departLane="G9G8_0" departPos="5.10" departSpeed="0.00" departDelay="0.00" arrival="141.00" arrivalLane="G7G6_0" arrivalPos="492.80" arrivalSpeed="11.33" duration="136.00" routeLength="1494.90" waitingTime="0.00" waitingCount="0" stopTime="0.00" timeLoss="9.69" rerouteNo="0" devices="tripinfo_f_0_9.1 emissions_f_0_9.1" vType="DEFAULT_VEHTYPE" speedFactor="0.86" vaporized="">
        <emissions CO_abs="3182.239553" CO2_abs="295166.365028" HC_abs="21.110478" PMx_abs="3.800042" NOx_abs="110.271552" fuel_abs="94145.357312" electricity_abs="0"/>
    </tripinfo>
    <tripinfo id="f_0_8.4" depart="12.00" departLane="G5G6_0" departPos="5.10" departSpeed="0.00" departDelay="2.00" arrival="141.00" arrivalLane="G7G8_0" arrivalPos="491.30" arrivalSpeed="13.36" duration="129.00" routeLength="1493.50" waitingTime="0.00" waitingCount="0" stopTime="0.00" timeLoss="22.65" rerouteNo="0" devices="tripinfo_f_0_8.4 emissions_f_0_8.4" vType="DEFAULT_VEHTYPE" speedFactor="1.02" vaporized="">
        <emissions CO_abs="4258.004381" CO2_abs="349259.779805" HC_abs="27.135532" PMx_abs="5.479821" NOx_abs="136.514417" fuel_abs="111397.988312" electricity_abs="0"/>
    </tripinfo>
    <tripinfo id="f_0_17.3" depart="12.00" departLane="D6D5_0" departPos="5.10" departSpeed="0.00" departDelay="0.00" arrival="141.00" arrivalLane="D4D3_0" arrivalPos="491.30" arrivalSpeed="14.95" duration="129.00" routeLength="1493.50" waitingTime="0.00" waitingCount="0" stopTime="0.00" timeLoss="33.18" rerouteNo="0" devices="tripinfo_f_0_17.3 emissions_f_0_17.3" vType="DEFAULT_VEHTYPE" speedFactor="1.13" vaporized="">
        <emissions CO_abs="4692.204164" CO2_abs="381420.550556" HC_abs="29.980819" PMx_abs="6.098889" NOx_abs="150.331319" fuel_abs="121655.686206" electricity_abs="0"/>
    </tripinfo>
    <tripinfo id="f_0_9.2" depart="8.00" departLane="G9G8_0" departPos="5.10" departSpeed="0.00" departDelay="2.00" arrival="142.00" arrivalLane="G7G6_0" arrivalPos="492.80" arrivalSpeed="13.86" duration="134.00" routeLength="1494.90" waitingTime="0.00" waitingCount="0" stopTime="0.00" timeLoss="31.08" rerouteNo="0" devices="tripinfo_f_0_9.2 emissions_f_0_9.2" vType="DEFAULT_VEHTYPE" speedFactor="1.05" vaporized="">
        <emissions CO_abs="4129.157591" CO2_abs="342253.122772" HC_abs="26.582455" PMx_abs="5.104973" NOx_abs="132.787293" fuel_abs="109163.458442" electricity_abs="0"/>
    </tripinfo>
    <tripinfo id="f_0_17.4" depart="22.00" departLane="D6D5_0" departPos="5.10" departSpeed="0.00" departDelay="0.00" arrival="142.00" arrivalLane="D4D3_0" arrivalPos="491.30" arrivalSpeed="15.13" duration="120.00" routeLength="1493.50" waitingTime="0.00" waitingCount="0" stopTime="0.00" timeLoss="28.64" rerouteNo="0" devices="tripinfo_f_0_17.4 emissions_f_0_17.4" vType="DEFAULT_VEHTYPE" speedFactor="1.18" vaporized="">
        <emissions CO_abs="4235.963078" CO2_abs="360769.120240" HC_abs="27.156973" PMx_abs="5.758363" NOx_abs="140.993506" fuel_abs="115068.710909" electricity_abs="0"/>
    </tripinfo>
    <tripinfo id="f_0_16.1" depart="4.00" departLane="D2D3_0" departPos="5.10" departSpeed="0.00" departDelay="2.00" arrival="144.00" arrivalLane="D4D5_0" arrivalPos="492.80" arrivalSpeed="10.99" duration="140.00" routeLength="1494.90" waitingTime="0.00" waitingCount="0" stopTime="0.00" timeLoss="9.99" rerouteNo="0" devices="tripinfo_f_0_16.1 emissions_f_0_16.1" vType="DEFAULT_VEHTYPE" speedFactor="0.83" vaporized="">
        <emissions CO_abs="3344.058984" CO2_abs="306275.619094" HC_abs="22.153216" PMx_abs="3.738566" NOx_abs="113.383971" fuel_abs="97688.977233" electricity_abs="0"/>
    </tripinfo>
    <tripinfo id="f_0_9.3" depart="11.00" departLane="G9G8_0" departPos="5.10" departSpeed="0.00" departDelay="1.00" arrival="144.00" arrivalLane="G7G6_0" arrivalPos="492.80" arrivalSpeed="13.88" duration="133.00" routeLength="1494.90" waitingTime="0.00" waitingCount="0" stopTime="0.00" timeLoss="26.06" rerouteNo="0" devices="tripinfo_f_0_9.3 emissions_f_0_9.3" vType="DEFAULT_VEHTYPE" speedFactor="1.01" vaporized="">
        <emissions CO_abs="4249.840514" CO2_abs="348174.474112" HC_abs="27.272221" PMx_abs="5.355458" NOx_abs="136.170584" fuel_abs="111051.929464" electricity_abs="0"/>
    </tripinfo>
    <tripinfo id="f_0_17.5" depart="25.00" departLane="D6D5_0" departPos="5.10" departSpeed="0.00" departDelay="2.00" arrival="144.00" arrivalLane="D4D3_0" arrivalPos="491.30" arrivalSpeed="15.30" duration="119.00" routeLength="1493.50" waitingTime="0.00" waitingCount="0" stopTime="0.00" timeLoss="20.83" rerouteNo="0" devices="tripinfo_f_0_17.5 emissions_f_0_17.5" vType="DEFAULT_VEHTYPE" speedFactor="1.10" vaporized="">
        <emissions CO_abs="3814.895596" CO2_abs="347855.766700" HC_abs="24.913150" PMx_abs="5.351438" NOx_abs="134.221053" fuel_abs="110950.028968" electricity_abs="0"/>
    </tripinfo>
    <tripinfo id="f_0_16.2" depart="7.00" departLane="D2D3_0" departPos="5.10" departSpeed="0.00" departDelay="0.00" arrival="146.00" arrivalLane="D4D5_0" arrivalPos="492.80" arrivalSpeed="11.72" duration="139.00" routeLength="1494.90" waitingTime="0.00" waitingCount="0" stopTime="0.00" timeLoss="15.81" rerouteNo="0" devices="tripinfo_f_0_16.2 emissions_f_0_16.2" vType="DEFAULT_VEHTYPE" speedFactor="0.88" vaporized="">
        <emissions CO_abs="4317.105860" CO2_abs="347882.141048" HC_abs="27.652075" PMx_abs="5.133696" NOx_abs="135.123798" fuel_abs="110958.960479" electricity_abs="0"/>
    </tripinfo>
    <tripinfo id="f_0_8.5" depart="15.00" departLane="G5G6_0" departPos="5.10" departSpeed="0.00" departDelay="4.00" arrival="146.00" arrivalLane="G7G8_0" arrivalPos="491.30" arrivalSpeed="12.01" duration="131.00" routeLength="1493.50" waitingTime="0.00" waitingCount="0" stopTime="0.00" timeLoss="9.69" rerouteNo="0" devices="tripinfo_f_0_8.5 emissions_f_0_8.5" vType="DEFAULT_VEHTYPE" speedFactor="0.89" vaporized="">
        <emissions CO_abs="2973.074221" CO2_abs="301207.217274" HC_abs="20.202362" PMx_abs="3.764170" NOx_abs="111.284159" fuel_abs="96072.108159" electricity_abs="0"/>
    </tripinfo>
    <tripinfo id="f_0_9.4" depart="14.00" departLane="G9G8_0" departPos="5.10" departSpeed="0.00" departDelay="2.00" arrival="146.00" arrivalLane="G7G6_0" arrivalPos="492.80" arrivalSpeed="11.81" duration="132.00" routeLength="1494.90" waitingTime="0.00" waitingCount="0" stopTime="0.00" timeLoss="14.20" rerouteNo="0" devices="tripinfo_f_0_9.4 emissions_f_0_9.4" vType="DEFAULT_VEHTYPE" speedFactor="0.92" vaporized="">
        <emissions CO_abs="3716.495239" CO2_abs="327775.758772" HC_abs="24.353299" PMx_abs="4.724671" NOx_abs="125.810645" fuel_abs="104545.871680" electricity_abs="0"/>
    </tripinfo>
    <tripinfo id="f_0_16.3" depart="10.00" departLane="D2D3_0" departPos="5.10" departSpeed="0.00" departDelay="1.00" arrival="148.00" arrivalLane="D4D5_0" arrivalPos="492.80" arrivalSpeed="12.29" duration="138.00" routeLength="1494.90" waitingTime="0.00" waitingCount="0" stopTime="0.00" timeLoss="22.16" rerouteNo="0" devices="tripinfo_f_0_16.3 emissions_f_0_16.3" vType="DEFAULT_VEHTYPE" speedFactor="0.94" vaporized="">
        <emissions CO_abs="4963.020388" CO2_abs="379488.677125" HC_abs="31.336105" PMx_abs="6.079592" NOx_abs="150.645501" fuel_abs="121039.647290" electricity_abs="0"/>
    </tripinfo>
    <tripinfo id="f_0_9.5" depart="17.00" departLane="G9G8_0" departPos="5.10" departSpeed="0.00" departDelay="4.00" arrival="148.00" arrivalLane="G7G6_0" arrivalPos="492.80" arrivalSpeed="12.23" duration="131.00" routeLength="1494.90" waitingTime="0.00" waitingCount="0" stopTime="0.00" timeLoss="14.69" rerouteNo="0" devices="tripinfo_f_0_9.5 emissions_f_0_9.5" vType="DEFAULT_VEHTYPE" speedFactor="0.93" vaporized="">
        <emissions CO_abs="3736.427851" CO2_abs="342069.864069" HC_abs="24.543787" PMx_abs="4.825544" NOx_abs="130.152283" fuel_abs="109105.101354" electricity_abs="0"/>
    </tripinfo>
    <tripinfo id="f_0_16.4" depart="13.00" departLane="D2D3_0" departPos="5.10" departSpeed="0.00" departDelay="1.00" arrival="149.00" arrivalLane="D4D5_0" arrivalPos="492.80" arrivalSpeed="11.92" duration="136.00" routeLength="1494.90" waitingTime="0.00" waitingCount="0" stopTime="0.00" timeLoss="22.45" rerouteNo="0" devices="tripinfo_f_0_16.4 emissions_f_0_16.4" vType="DEFAULT_VEHTYPE" speedFactor="0.95" vaporized="">
        <emissions CO_abs="4878.311065" CO2_abs="369905.764918" HC_abs="30.728356" PMx_abs="6.010438" NOx_abs="147.283853" fuel_abs="117983.067592" electricity_abs="0"/>
    </tripinfo>
    <tripinfo id="f_0_16.5" depart="16.00" departLane="D2D3_0" departPos="5.10" departSpeed="0.00" departDelay="1.00" arrival="151.00" arrivalLane="D4D5_0" arrivalPos="492.80" arrivalSpeed="15.93" duration="135.00" routeLength="1494.90" waitingTime="0.00" waitingCount="0" stopTime="0.00" timeLoss="41.12" rerouteNo="0" devices="tripinfo_f_0_16.5 emissions_f_0_16.5" vType="DEFAULT_VEHTYPE" speedFactor="1.15" vaporized="">
        <emissions CO_abs="5395.627347" CO2_abs="402469.374030" HC_abs="33.803267" PMx_abs="6.747933" NOx_abs="161.592408" fuel_abs="128369.183667" electricity_abs="0"/>
    </tripinfo>
    <tripinfo id="f_0_17.6" depart="29.00" departLane="D6D5_0" departPos="5.10" departSpeed="0.00" departDelay="0.00" arrival="157.00" arrivalLane="D4D3_0" arrivalPos="491.30" arrivalSpeed="14.04" duration="128.00" routeLength="1493.50" waitingTime="14.00" waitingCount="1" stopTime="0.00" timeLoss="28.75" rerouteNo="0" devices="tripinfo_f_0_17.6 emissions_f_0_17.6" vType="DEFAULT_VEHTYPE" speedFactor="1.09" vaporized="">
        <emissions CO_abs="6032.710006" CO2_abs="366310.042678" HC_abs="35.161260" PMx_abs="5.921074" NOx_abs="142.578393" fuel_abs="116837.048087" electricity_abs="0"/>
    </tripinfo>
    <tripinfo id="f_0_9.6" depart="20.00" departLane="G9G8_0" departPos="5.10" departSpeed="0.00" departDelay="1.00" arrival="164.00" arrivalLane="G7G6_0" arrivalPos="492.80" arrivalSpeed="13.22" duration="144.00" routeLength="1494.90" waitingTime="21.00" waitingCount="1" stopTime="0.00" timeLoss="34.98" rerouteNo="0" devices="tripinfo_f_0_9.6 emissions_f_0_9.6" vType="DEFAULT_VEHTYPE" speedFactor="0.99" vaporized="">
        <emissions CO_abs="6996.217536" CO2_abs="380742.157318" HC_abs="40.222144" PMx_abs="6.084738" NOx_abs="148.958188" fuel_abs="121440.838245" electricity_abs="0"/>
    </tripinfo>
    <tripinfo id="f_0_9.7" depart="25.00" departLane="G9G8_0" departPos="5.10" departSpeed="0.00" departDelay="0.00" arrival="165.00" arrivalLane="G7G6_0" arrivalPos="492.80" arrivalSpeed="14.31" duration="140.00" routeLength="1494.90" waitingTime="20.00" waitingCount="1" stopTime="0.00" timeLoss="35.41" rerouteNo="0" devices="tripinfo_f_0_9.7 emissions_f_0_9.7" vType="DEFAULT_VEHTYPE" speedFactor="1.03" vaporized="">
        <emissions CO_abs="6945.161679" CO2_abs="384315.578211" HC_abs="40.088409" PMx_abs="6.271664" NOx_abs="150.800113" fuel_abs="122580.399122" electricity_abs="0"/>
    </tripinfo>
    <tripinfo id="f_0_9.8" depart="28.00" departLane="G9G8_0" departPos="5.10" departSpeed="0.00" departDelay="0.00" arrival="167.00" arrivalLane="G7G6_0" arrivalPos="492.80" arrivalSpeed="14.26" duration="139.00" routeLength="1494.90" waitingTime="18.00" waitingCount="1" stopTime="0.00" timeLoss="34.90" rerouteNo="0" devices="tripinfo_f_0_9.8 emissions_f_0_9.8" vType="DEFAULT_VEHTYPE" speedFactor="1.04" vaporized="">
        <emissions CO_abs="6880.698152" CO2_abs="388777.851193" HC_abs="39.841748" PMx_abs="6.325132" NOx_abs="152.599045" fuel_abs="124003.590197" electricity_abs="0"/>
    </tripinfo>
    <tripinfo id="f_0_16.6" depart="24.00" departLane="D2D3_0" departPos="5.10" departSpeed="0.00" departDelay="0.00" arrival="172.00" arrivalLane="D4D5_0" arrivalPos="492.80" arrivalSpeed="11.56" duration="148.00" routeLength="1494.90" waitingTime="13.00" waitingCount="1" stopTime="0.00" timeLoss="27.74" rerouteNo="0" devices="tripinfo_f_0_16.6 emissions_f_0_16.6" vType="DEFAULT_VEHTYPE" speedFactor="0.90" vaporized="">
        <emissions CO_abs="5656.407575" CO2_abs="355407.086395" HC_abs="33.534163" PMx_abs="4.928547" NOx_abs="134.525990" fuel_abs="113360.330779" electricity_abs="0"/>
    </tripinfo>
    <tripinfo id="f_0_16.7" depart="27.00" departLane="D2D3_0" departPos="5.10" departSpeed="0.00" departDelay="1.00" arrival="173.00" arrivalLane="D4D5_0" arrivalPos="492.80" arrivalSpeed="14.28" duration="146.00" routeLength="1494.90" waitingTime="12.00" waitingCount="1" stopTime="0.00" timeLoss="47.32" rerouteNo="0" devices="tripinfo_f_0_16.7 emissions_f_0_16.7" vType="DEFAULT_VEHTYPE" speedFactor="1.09" vaporized="">
        <emissions CO_abs="6792.110033" CO2_abs="387969.804159" HC_abs="39.795145" PMx_abs="6.536518" NOx_abs="155.452514" fuel_abs="123745.503716" electricity_abs="0"/>
    </tripinfo>
    <tripinfo id="f_0_8.6" depart="18.00" departLane="G5G6_0" departPos="5.10" departSpeed="0.00" departDelay="6.00" arrival="174.00" arrivalLane="G7G8_0" arrivalPos="491.30" arrivalSpeed="11.50" duration="156.00" routeLength="1493.50" waitingTime="18.00" waitingCount="1" stopTime="0.00" timeLoss="32.11" rerouteNo="0" devices="tripinfo_f_0_8.6 emissions_f_0_8.6" vType="DEFAULT_VEHTYPE" speedFactor="0.87" vaporized="">
        <emissions CO_abs="6744.550334" CO2_abs="363357.372576" HC_abs="38.955737" PMx_abs="5.435002" NOx_abs="141.071977" fuel_abs="115896.246098" electricity_abs="0"/>
    </tripinfo>
    <tripinfo id="f_0_1.0" depart="1.00" departLane="F7E7_0" departPos="5.10" departSpeed="0.00" departDelay="0.00" arrival="175.00" arrivalLane="C7B7_0" arrivalPos="491.30" arrivalSpeed="12.90" duration="174.00" routeLength="1993.50" waitingTime="16.00" waitingCount="1" stopTime="0.00" timeLoss="31.92" rerouteNo="0" devices="tripinfo_f_0_1.0 emissions_f_0_1.0" vType="DEFAULT_VEHTYPE" speedFactor="1.01" vaporized="">
        <emissions CO_abs="6302.322174" CO2_abs="439933.183782" HC_abs="37.824814" PMx_abs="6.292758" NOx_abs="165.656056" fuel_abs="140320.042389" electricity_abs="0"/>
    </tripinfo>
    <tripinfo id="f_0_8.7" depart="21.00" departLane="G5G6_0" departPos="5.10" departSpeed="0.00" departDelay="6.00" arrival="175.00" arrivalLane="G7G8_0" arrivalPos="491.30" arrivalSpeed="13.95" duration="154.00" routeLength="1493.50" waitingTime="17.00" waitingCount="1" stopTime="0.00" timeLoss="62.65" rerouteNo="0" devices="tripinfo_f_0_8.7 emissions_f_0_8.7" vType="DEFAULT_VEHTYPE" speedFactor="1.18" vaporized="">
        <emissions CO_abs="7638.122480" CO2_abs="408028.231335" HC_abs="44.119508" PMx_abs="6.791251" NOx_abs="163.210166" fuel_abs="130143.673664" electricity_abs="0"/>
    </tripinfo>
    <tripinfo id="f_0_16.8" depart="30.00" departLane="D2D3_0" departPos="5.10" departSpeed="0.00" departDelay="2.00" arrival="175.00" arrivalLane="D4D5_0" arrivalPos="492.80" arrivalSpeed="14.26" duration="145.00" routeLength="1494.90" waitingTime="11.00" waitingCount="1" stopTime="0.00" timeLoss="41.46" rerouteNo="0" devices="tripinfo_f_0_16.8 emissions_f_0_16.8" vType="DEFAULT_VEHTYPE" speedFactor="1.04" vaporized="">
        <emissions CO_abs="6685.075012" CO2_abs="401854.922413" HC_abs="39.455963" PMx_abs="6.582555" NOx_abs="159.288258" fuel_abs="128174.257503" electricity_abs="0"/>
    </tripinfo>
    <tripinfo id="f_0_1.1" depart="7.00" departLane="F7E7_0" departPos="5.10" departSpeed="0.00" departDelay="0.00" arrival="178.00" arrivalLane="C7B7_0" arrivalPos="491.30" arrivalSpeed="13.38" duration="171.00" routeLength="1993.50" waitingTime="10.00" waitingCount="1" stopTime="0.00" timeLoss="25.84" rerouteNo="0" devices="tripinfo_f_0_1.1 emissions_f_0_1.1" vType="DEFAULT_VEHTYPE" speedFactor="0.99" vaporized="">
        <emissions CO_abs="5909.984356" CO2_abs="442355.565724" HC_abs="36.348516" PMx_abs="6.498226" NOx_abs="168.114764" fuel_abs="141092.231236" electricity_abs="0"/>
    </tripinfo>
    <tripinfo id="f_0_1.2" depart="11.00" departLane="F7E7_0" departPos="5.10" departSpeed="0.00" departDelay="0.00" arrival="216.00" arrivalLane="C7B7_0" arrivalPos="491.30" arrivalSpeed="12.36" duration="205.00" routeLength="1993.50" waitingTime="41.00" waitingCount="1" stopTime="0.00" timeLoss="57.26" rerouteNo="0" devices="tripinfo_f_0_1.2 emissions_f_0_1.2" vType="DEFAULT_VEHTYPE" speedFactor="0.97" vaporized="">
        <emissions CO_abs="10596.768783" CO2_abs="512725.481041" HC_abs="58.935531" PMx_abs="7.761753" NOx_abs="196.710412" fuel_abs="163539.250021" electricity_abs="0"/>
    </tripinfo>
    <tripinfo id="f_0_0.0" depart="5.00" departLane="A7B7_0" departPos="5.10" departSpeed="0.00" departDelay="0.00" arrival="218.00" arrivalLane="D7E7_0" arrivalPos="492.80" arrivalSpeed="12.84" duration="213.00" routeLength="1994.90" waitingTime="45.00" waitingCount="1" stopTime="0.00" timeLoss="59.53" rerouteNo="0" devices="tripinfo_f_0_0.0 emissions_f_0_0.0" vType="DEFAULT_VEHTYPE" speedFactor="0.94" vaporized="">
        <emissions CO_abs="11232.435768" CO2_abs="523197.035368" HC_abs="62.521550" PMx_abs="8.131567" NOx_abs="203.480883" fuel_abs="166879.284243" electricity_abs="0"/>
    </tripinfo>
    <tripinfo id="f_0_8.8" depart="32.00" departLane="G5G6_0" departPos="5.10" departSpeed="0.00" departDelay="0.00" arrival="221.00" arrivalLane="G7G8_0" arrivalPos="491.30" arrivalSpeed="13.23" duration="189.00" routeLength="1493.50" waitingTime="57.00" waitingCount="2" stopTime="0.00" timeLoss="81.16" rerouteNo="0" devices="tripinfo_f_0_8.8 emissions_f_0_8.8" vType="DEFAULT_VEHTYPE" speedFactor="1.00" vaporized="">
        <emissions CO_abs="14266.898054" CO2_abs="515981.002728" HC_abs="76.466931" PMx_abs="9.509532" NOx_abs="211.792956" fuel_abs="164577.852505" electricity_abs="0"/>
    </tripinfo>
    <tripinfo id="f_0_9.9" depart="31.00" departLane="G9G8_0" departPos="5.10" departSpeed="0.00" departDelay="1.00" arrival="225.00" arrivalLane="G7G6_0" arrivalPos="492.80" arrivalSpeed="12.34" duration="194.00" routeLength="1494.90" waitingTime="53.00" waitingCount="2" stopTime="0.00" timeLoss="73.69" rerouteNo="0" devices="tripinfo_f_0_9.9 emissions_f_0_9.9" vType="DEFAULT_VEHTYPE" speedFactor="0.90" vaporized="">
        <emissions CO_abs="13321.128347" CO2_abs="492856.529073" HC_abs="71.805830" PMx_abs="8.538780" NOx_abs="199.262502" fuel_abs="157202.502487" electricity_abs="0"/>
    </tripinfo>
    <tripinfo id="f_0_16.9" depart="33.00" departLane="D2D3_0" departPos="5.10" departSpeed="0.00" departDelay="3.00" arrival="226.00" arrivalLane="D4D5_0" arrivalPos="492.80" arrivalSpeed="11.78" duration="193.00" routeLength="1494.90" waitingTime="47.00" waitingCount="2" stopTime="0.00" timeLoss="69.62" rerouteNo="0" devices="tripinfo_f_0_16.9 emissions_f_0_16.9" vType="DEFAULT_VEHTYPE" speedFactor="0.88" vaporized="">
        <emissions CO_abs="12925.908026" CO2_abs="476567.927000" HC_abs="69.704875" PMx_abs="8.369723" NOx_abs="193.810798" fuel_abs="152006.937719" electricity_abs="0"/>
    </tripinfo>
    <tripinfo id="f_0_8.9" depart="38.00" departLane="G5G6_0" departPos="5.10" departSpeed="0.00" departDelay="0.00" arrival="226.00" arrivalLane="G7G8_0" arrivalPos="491.30" arrivalSpeed="12.38" duration="188.00" routeLength="1493.50" waitingTime="48.00" waitingCount="2" stopTime="0.00" timeLoss="70.14" rerouteNo="0" devices="tripinfo_f_0_8.9 emissions_f_0_8.9" vType="DEFAULT_VEHTYPE" speedFactor="0.91" vaporized="">
        <emissions CO_abs="12699.560553" CO2_abs="474454.745017" HC_abs="68.610158" PMx_abs="8.308802" NOx_abs="192.448628" fuel_abs="151332.850260" electricity_abs="0"/>
    </tripinfo>
    <tripinfo id="f_0_9.10" depart="34.00" departLane="G9G8_0" departPos="5.10" departSpeed="0.00" departDelay="1.00" arrival="227.00" arrivalLane="G7G6_0" arrivalPos="492.80" arrivalSpeed="11.74" duration="193.00" routeLength="1494.90" waitingTime="49.00" waitingCount="2" stopTime="0.00" timeLoss="72.59" rerouteNo="0" devices="tripinfo_f_0_9.10 emissions_f_0_9.10" vType="DEFAULT_VEHTYPE" speedFactor="0.90" vaporized="">
        <emissions CO_abs="13055.044699" CO2_abs="483449.265031" HC_abs="70.298743" PMx_abs="8.277976" NOx_abs="194.693722" fuel_abs="154202.056090" electricity_abs="0"/>
    </tripinfo>
    <tripinfo id="f_0_17.7" depart="32.00" departLane="D6D5_0" departPos="5.10" departSpeed="0.00" departDelay="2.00" arrival="228.00" arrivalLane="D4D3_0" arrivalPos="491.30" arrivalSpeed="11.56" duration="196.00" routeLength="1493.50" waitingTime="47.00" waitingCount="2" stopTime="0.00" timeLoss="69.02" rerouteNo="0" devices="tripinfo_f_0_17.7 emissions_f_0_17.7" vType="DEFAULT_VEHTYPE" speedFactor="0.85" vaporized="">
        <emissions CO_abs="12664.603311" CO2_abs="476397.348637" HC_abs="68.452060" PMx_abs="7.848519" NOx_abs="190.121344" fuel_abs="151952.999203" electricity_abs="0"/>
    </tripinfo>
    <tripinfo id="f_0_16.10" depart="36.00" departLane="D2D3_0" departPos="5.10" departSpeed="0.00" departDelay="5.00" arrival="228.00" arrivalLane="D4D5_0" arrivalPos="492.80" arrivalSpeed="13.20" duration="192.00" routeLength="1494.90" waitingTime="47.00" waitingCount="2" stopTime="0.00" timeLoss="85.23" rerouteNo="0" devices="tripinfo_f_0_16.10 emissions_f_0_16.10" vType="DEFAULT_VEHTYPE" speedFactor="1.02" vaporized="">
        <emissions CO_abs="13539.052281" CO2_abs="501056.374503" HC_abs="73.171759" PMx_abs="9.318190" NOx_abs="207.507327" fuel_abs="159817.156019" electricity_abs="0"/>
    </tripinfo>
    <tripinfo id="f_0_9.11" depart="37.00" departLane="G9G8_0" departPos="5.10" departSpeed="0.00" departDelay="3.00" arrival="228.00" arrivalLane="G7G6_0" arrivalPos="492.80" arrivalSpeed="13.76" duration="191.00" routeLength="1494.90" waitingTime="50.00" waitingCount="2" stopTime="0.00" timeLoss="85.79" rerouteNo="0" devices="tripinfo_f_0_9.11 emissions_f_0_9.11" vType="DEFAULT_VEHTYPE" speedFactor="1.02" vaporized="">
        <emissions CO_abs="13812.751136" CO2_abs="518762.018335" HC_abs="74.798964" PMx_abs="9.554032" NOx_abs="213.867447" fuel_abs="165464.557480" electricity_abs="0"/>
    </tripinfo>
    <tripinfo id="f_0_8.10" depart="47.00" departLane="G5G6_0" departPos="5.10" departSpeed="0.00" departDelay="0.00" arrival="228.00" arrivalLane="G7G8_0" arrivalPos="491.30" arrivalSpeed="12.96" duration="181.00" routeLength="1493.50" waitingTime="43.00" waitingCount="2" stopTime="0.00" timeLoss="74.66" rerouteNo="0" devices="tripinfo_f_0_8.10 emissions_f_0_8.10" vType="DEFAULT_VEHTYPE" speedFactor="1.02" vaporized="">
        <emissions CO_abs="12473.018869" CO2_abs="487249.366625" HC_abs="67.982050" PMx_abs="9.024850" NOx_abs="201.038432" fuel_abs="155412.889493" electricity_abs="0"/>
    </tripinfo>
    <tripinfo id="f_0_16.11" depart="39.00" departLane="D2D3_0" departPos="5.10" departSpeed="0.00" departDelay="7.00" arrival="229.00" arrivalLane="D4D5_0" arrivalPos="492.80" arrivalSpeed="12.97" duration="190.00" routeLength="1494.90" waitingTime="45.00" waitingCount="2" stopTime="0.00" timeLoss="81.76" rerouteNo="0" devices="tripinfo_f_0_16.11 emissions_f_0_16.11" vType="DEFAULT_VEHTYPE" speedFactor="1.00" vaporized="">
        <emissions CO_abs="13819.585965" CO2_abs="528650.344475" HC_abs="75.119912" PMx_abs="9.719303" NOx_abs="217.948359" fuel_abs="168618.392358" electricity_abs="0"/>
    </tripinfo>
    <tripinfo id="f_0_17.8" depart="35.00" departLane="D6D5_0" departPos="5.10" departSpeed="0.00" departDelay="2.00" arrival="230.00" arrivalLane="D4D3_0" arrivalPos="491.30" arrivalSpeed="14.67" duration="195.00" routeLength="1493.50" waitingTime="46.00" waitingCount="2" stopTime="0.00" timeLoss="100.08" rerouteNo="0" devices="tripinfo_f_0_17.8 emissions_f_0_17.8" vType="DEFAULT_VEHTYPE" speedFactor="1.14" vaporized="">