<?xml version="1.0" encoding="UTF-8"?>

<!-- generated on 2024-08-22 13:35:58 by Eclipse SUMO sumo Version 1.17.0
<configuration xmlns:xsi="http://www.w3.org/2001/XMLSchema-instance" xsi:noNamespaceSchemaLocation="http://sumo.dlr.de/xsd/sumoConfiguration.xsd">

    <input>
        <net-file value="double_static_offset.net.xml"/>
        <route-files value="double_4.rou.xml"/>
    </input>

    <output>
        <tripinfo-output value="emissions_test\z_static_offset_4_emissions_tripinfo_double.xml"/>
    </output>

    <processing>
        <time-to-teleport value="-1"/>
    </processing>

    <emissions>
        <device.emissions.probability value="1.0"/>
    </emissions>

    <traci_server>
        <remote-port value="58217"/>
    </traci_server>

</configuration>
-->

<tripinfos xmlns:xsi="http://www.w3.org/2001/XMLSchema-instance" xsi:noNamespaceSchemaLocation="http://sumo.dlr.de/xsd/tripinfo_file.xsd">
    <tripinfo id="f_1_17.0" depart="5.00" departLane="D6D5_0" departPos="5.10" departSpeed="0.00" departDelay="0.00" arrival="104.00" arrivalLane="D4D3_0" arrivalPos="491.30" arrivalSpeed="16.04" duration="99.00" routeLength="1493.50" waitingTime="0.00" waitingCount="0" stopTime="0.00" timeLoss="6.77" rerouteNo="0" devices="tripinfo_f_1_17.0 emissions_f_1_17.0" vType="DEFAULT_VEHTYPE" speedFactor="1.17" vaporized="">
        <emissions CO_abs="2357.618341" CO2_abs="298787.305009" HC_abs="16.541511" PMx_abs="4.190306" NOx_abs="108.762401" fuel_abs="95299.426907" electricity_abs="0"/>
    </tripinfo>
    <tripinfo id="f_1_10.0" depart="0.00" departLane="H5H6_0" departPos="5.10" departSpeed="0.00" departDelay="0.00" arrival="108.00" arrivalLane="H7H8_0" arrivalPos="491.30" arrivalSpeed="15.01" duration="108.00" routeLength="1493.50" waitingTime="0.00" waitingCount="0" stopTime="0.00" timeLoss="7.97" rerouteNo="0" devices="tripinfo_f_1_10.0 emissions_f_1_10.0" vType="DEFAULT_VEHTYPE" speedFactor="1.08" vaporized="">
        <emissions CO_abs="2380.773389" CO2_abs="287244.439542" HC_abs="16.595455" PMx_abs="3.871223" NOx_abs="105.250495" fuel_abs="91617.981439" electricity_abs="0"/>
    </tripinfo>
    <tripinfo id="f_1_16.0" depart="0.00" departLane="D2D3_0" departPos="5.10" departSpeed="0.00" departDelay="0.00" arrival="113.00" arrivalLane="D4D5_0" arrivalPos="492.80" arrivalSpeed="13.35" duration="113.00" routeLength="1494.90" waitingTime="0.00" waitingCount="0" stopTime="0.00" timeLoss="7.95" rerouteNo="0" devices="tripinfo_f_1_16.0 emissions_f_1_16.0" vType="DEFAULT_VEHTYPE" speedFactor="1.03" vaporized="">
        <emissions CO_abs="2555.827363" CO2_abs="289253.438771" HC_abs="17.496444" PMx_abs="3.923641" NOx_abs="106.926156" fuel_abs="92258.829795" electricity_abs="0"/>
    </tripinfo>
    <tripinfo id="f_1_16.1" depart="6.00" departLane="D2D3_0" departPos="5.10" departSpeed="0.00" departDelay="0.00" arrival="115.00" arrivalLane="D4D5_0" arrivalPos="492.80" arrivalSpeed="14.83" duration="109.00" routeLength="1494.90" waitingTime="0.00" waitingCount="0" stopTime="0.00" timeLoss="10.46" rerouteNo="0" devices="tripinfo_f_1_16.1 emissions_f_1_16.1" vType="DEFAULT_VEHTYPE" speedFactor="1.10" vaporized="">
        <emissions CO_abs="2816.812846" CO2_abs="303713.828266" HC_abs="19.263251" PMx_abs="4.479194" NOx_abs="114.271475" fuel_abs="96870.765279" electricity_abs="0"/>
    </tripinfo>
    <tripinfo id="f_1_17.1" depart="8.00" departLane="D6D5_0" departPos="5.10" departSpeed="0.00" departDelay="1.00" arrival="119.00" arrivalLane="D4D3_0" arrivalPos="491.30" arrivalSpeed="13.40" duration="111.00" routeLength="1493.50" waitingTime="0.00" waitingCount="0" stopTime="0.00" timeLoss="7.36" rerouteNo="0" devices="tripinfo_f_1_17.1 emissions_f_1_17.1" vType="DEFAULT_VEHTYPE" speedFactor="1.04" vaporized="">
        <emissions CO_abs="2149.027421" CO2_abs="287900.330872" HC_abs="15.190965" PMx_abs="3.536485" NOx_abs="103.038869" fuel_abs="91827.413066" electricity_abs="0"/>
    </tripinfo>
    <tripinfo id="f_1_16.2" depart="9.00" departLane="D2D3_0" departPos="5.10" departSpeed="0.00" departDelay="2.00" arrival="121.00" arrivalLane="D4D5_0" arrivalPos="492.80" arrivalSpeed="14.16" duration="112.00" routeLength="1494.90" waitingTime="0.00" waitingCount="0" stopTime="0.00" timeLoss="8.13" rerouteNo="0" devices="tripinfo_f_1_16.2 emissions_f_1_16.2" vType="DEFAULT_VEHTYPE" speedFactor="1.04" vaporized="">
        <emissions CO_abs="2280.085563" CO2_abs="290456.008205" HC_abs="16.109748" PMx_abs="3.652609" NOx_abs="105.066728" fuel_abs="92642.543472" electricity_abs="0"/>
    </tripinfo>
    <tripinfo id="f_1_17.2" depart="11.00" departLane="D6D5_0" departPos="5.10" departSpeed="0.00" departDelay="3.00" arrival="121.00" arrivalLane="D4D3_0" arrivalPos="491.30" arrivalSpeed="15.49" duration="110.00" routeLength="1493.50" waitingTime="0.00" waitingCount="0" stopTime="0.00" timeLoss="17.14" rerouteNo="0" devices="tripinfo_f_1_17.2 emissions_f_1_17.2" vType="DEFAULT_VEHTYPE" speedFactor="1.17" vaporized="">
        <emissions CO_abs="3055.044967" CO2_abs="316764.537021" HC_abs="20.744402" PMx_abs="4.815946" NOx_abs="120.556021" fuel_abs="101033.247600" electricity_abs="0"/>
    </tripinfo>
    <tripinfo id="f_1_23.0" depart="5.00" departLane="H6H5_0" departPos="5.10" departSpeed="0.00" departDelay="0.00" arrival="122.00" arrivalLane="H4H3_0" arrivalPos="491.30" arrivalSpeed="13.45" duration="117.00" routeLength="1493.50" waitingTime="0.00" waitingCount="0" stopTime="0.00" timeLoss="7.97" rerouteNo="0" devices="tripinfo_f_1_23.0 emissions_f_1_23.0" vType="DEFAULT_VEHTYPE" speedFactor="0.99" vaporized="">
        <emissions CO_abs="2287.061304" CO2_abs="278770.491879" HC_abs="16.122973" PMx_abs="3.523616" NOx_abs="101.670680" fuel_abs="88915.444611" electricity_abs="0"/>
    </tripinfo>
    <tripinfo id="f_1_23.1" depart="12.00" departLane="H6H5_0" departPos="5.10" departSpeed="0.00" departDelay="0.00" arrival="123.00" arrivalLane="H4H3_0" arrivalPos="491.30" arrivalSpeed="14.49" duration="111.00" routeLength="1493.50" waitingTime="0.00" waitingCount="0" stopTime="0.00" timeLoss="8.79" rerouteNo="0" devices="tripinfo_f_1_23.1 emissions_f_1_23.1" vType="DEFAULT_VEHTYPE" speedFactor="1.06" vaporized="">
        <emissions CO_abs="2544.812605" CO2_abs="295106.627689" HC_abs="17.704491" PMx_abs="4.067005" NOx_abs="109.209327" fuel_abs="94125.650234" electricity_abs="0"/>
    </tripinfo>
    <tripinfo id="f_0_5.0" depart="0.00" departLane="D9D8_0" departPos="5.10" departSpeed="0.00" departDelay="0.00" arrival="124.00" arrivalLane="D7D6_0" arrivalPos="492.80" arrivalSpeed="12.65" duration="124.00" routeLength="1494.90" waitingTime="0.00" waitingCount="0" stopTime="0.00" timeLoss="8.35" rerouteNo="0" devices="tripinfo_f_0_5.0 emissions_f_0_5.0" vType="DEFAULT_VEHTYPE" speedFactor="0.94" vaporized="">
        <emissions CO_abs="2766.012477" CO2_abs="300640.305510" HC_abs="18.830489" PMx_abs="3.875148" NOx_abs="110.757738" fuel_abs="95891.046790" electricity_abs="0"/>
    </tripinfo>
    <tripinfo id="f_1_16.3" depart="12.00" departLane="D2D3_0" departPos="5.10" departSpeed="0.00" departDelay="1.00" arrival="124.00" arrivalLane="D4D5_0" arrivalPos="492.80" arrivalSpeed="14.28" duration="112.00" routeLength="1494.90" waitingTime="0.00" waitingCount="0" stopTime="0.00" timeLoss="7.80" rerouteNo="0" devices="tripinfo_f_1_16.3 emissions_f_1_16.3" vType="DEFAULT_VEHTYPE" speedFactor="1.04" vaporized="">
        <emissions CO_abs="2355.500083" CO2_abs="289714.008199" HC_abs="16.614079" PMx_abs="3.832995" NOx_abs="106.030818" fuel_abs="92405.753929" electricity_abs="0"/>
    </tripinfo>
    <tripinfo id="f_1_21.0" depart="4.00" departLane="G6G5_0" departPos="5.10" departSpeed="0.00" departDelay="0.00" arrival="125.00" arrivalLane="G4G3_0" arrivalPos="491.30" arrivalSpeed="15.94" duration="121.00" routeLength="1493.50" waitingTime="17.00" waitingCount="1" stopTime="0.00" timeLoss="28.94" rerouteNo="0" devices="tripinfo_f_1_21.0 emissions_f_1_21.0" vType="DEFAULT_VEHTYPE" speedFactor="1.18" vaporized="">
        <emissions CO_abs="6296.863013" CO2_abs="375904.901874" HC_abs="36.528477" PMx_abs="6.304542" NOx_abs="146.394531" fuel_abs="119897.225779" electricity_abs="0"/>
    </tripinfo>
    <tripinfo id="f_0_2.0" depart="0.00" departLane="C5C6_0" departPos="5.10" departSpeed="0.00" departDelay="0.00" arrival="128.00" arrivalLane="C7C8_0" arrivalPos="491.30" arrivalSpeed="13.97" duration="128.00" routeLength="1493.50" waitingTime="14.00" waitingCount="1" stopTime="0.00" timeLoss="26.56" rerouteNo="0" devices="tripinfo_f_0_2.0 emissions_f_0_2.0" vType="DEFAULT_VEHTYPE" speedFactor="1.06" vaporized="">
        <emissions CO_abs="5647.806333" CO2_abs="354367.764959" HC_abs="33.422610" PMx_abs="5.695091" NOx_abs="137.994675" fuel_abs="113027.941866" electricity_abs="0"/>
    </tripinfo>
    <tripinfo id="f_1_14.0" depart="1.00" departLane="C2C3_0" departPos="5.10" departSpeed="0.00" departDelay="0.00" arrival="128.00" arrivalLane="C4C5_0" arrivalPos="492.80" arrivalSpeed="14.36" duration="127.00" routeLength="1494.90" waitingTime="14.00" waitingCount="1" stopTime="0.00" timeLoss="27.69" rerouteNo="0" devices="tripinfo_f_1_14.0 emissions_f_1_14.0" vType="DEFAULT_VEHTYPE" speedFactor="1.09" vaporized="">
        <emissions CO_abs="5528.879718" CO2_abs="355206.204319" HC_abs="32.562375" PMx_abs="5.480275" NOx_abs="135.627646" fuel_abs="113295.544653" electricity_abs="0"/>
    </tripinfo>
    <tripinfo id="f_1_21.1" depart="16.00" departLane="G6G5_0" departPos="5.10" departSpeed="0.00" departDelay="0.00" arrival="129.00" arrivalLane="G4G3_0" arrivalPos="491.30" arrivalSpeed="13.89" duration="113.00" routeLength="1493.50" waitingTime="0.00" waitingCount="0" stopTime="0.00" timeLoss="14.05" rerouteNo="0" devices="tripinfo_f_1_21.1 emissions_f_1_21.1" vType="DEFAULT_VEHTYPE" speedFactor="1.09" vaporized="">
        <emissions CO_abs="3521.550497" CO2_abs="326532.147774" HC_abs="22.968846" PMx_abs="4.894287" NOx_abs="123.614193" fuel_abs="104148.967324" electricity_abs="0"/>
    </tripinfo>
    <tripinfo id="f_0_3.0" depart="9.00" departLane="C9C8_0" departPos="5.10" departSpeed="0.00" departDelay="0.00" arrival="130.00" arrivalLane="C7C6_0" arrivalPos="492.80" arrivalSpeed="13.30" duration="121.00" routeLength="1494.90" waitingTime="0.00" waitingCount="0" stopTime="0.00" timeLoss="13.37" rerouteNo="0" devices="tripinfo_f_0_3.0 emissions_f_0_3.0" vType="DEFAULT_VEHTYPE" speedFactor="1.00" vaporized="">
        <emissions CO_abs="3324.693832" CO2_abs="311087.746762" HC_abs="21.685358" PMx_abs="4.470089" NOx_abs="117.811853" fuel_abs="99223.041121" electricity_abs="0"/>
    </tripinfo>
    <tripinfo id="f_1_9.0" depart="1.00" departLane="G9G8_0" departPos="5.10" departSpeed="0.00" departDelay="0.00" arrival="133.00" arrivalLane="G7G6_0" arrivalPos="492.80" arrivalSpeed="12.71" duration="132.00" routeLength="1494.90" waitingTime="3.00" waitingCount="1" stopTime="0.00" timeLoss="17.06" rerouteNo="0" devices="tripinfo_f_1_9.0 emissions_f_1_9.0" vType="DEFAULT_VEHTYPE" speedFactor="0.94" vaporized="">
        <emissions CO_abs="3818.765311" CO2_abs="320150.171138" HC_abs="24.062541" PMx_abs="4.312455" NOx_abs="119.651047" fuel_abs="102114.141130" electricity_abs="0"/>
    </tripinfo>
    <tripinfo id="f_1_15.0" depart="2.00" departLane="C6C5_0" departPos="5.10" departSpeed="0.00" departDelay="0.00" arrival="133.00" arrivalLane="C4C3_0" arrivalPos="491.30" arrivalSpeed="12.06" duration="131.00" routeLength="1493.50" waitingTime="0.00" waitingCount="0" stopTime="0.00" timeLoss="15.71" rerouteNo="0" devices="tripinfo_f_1_15.0 emissions_f_1_15.0" vType="DEFAULT_VEHTYPE" speedFactor="0.94" vaporized="">
        <emissions CO_abs="3642.439395" CO2_abs="320413.055729" HC_abs="23.391807" PMx_abs="4.216353" NOx_abs="118.994806" fuel_abs="102198.022722" electricity_abs="0"/>
    </tripinfo>
    <tripinfo id="f_0_2.1" depart="3.00" departLane="C5C6_0" departPos="5.10" departSpeed="0.00" departDelay="0.00" arrival="133.00" arrivalLane="C7C8_0" arrivalPos="491.30" arrivalSpeed="12.63" duration="130.00" routeLength="1493.50" waitingTime="5.00" waitingCount="1" stopTime="0.00" timeLoss="19.72" rerouteNo="0" devices="tripinfo_f_0_2.1 emissions_f_0_2.1" vType="DEFAULT_VEHTYPE" speedFactor="0.97" vaporized="">
        <emissions CO_abs="4162.101095" CO2_abs="326252.113067" HC_abs="25.969071" PMx_abs="4.699848" NOx_abs="123.678717" fuel_abs="104060.243653" electricity_abs="0"/>
    </tripinfo>
    <tripinfo id="f_0_3.1" depart="12.00" departLane="C9C8_0" departPos="5.10" departSpeed="0.00" departDelay="2.00" arrival="134.00" arrivalLane="C7C6_0" arrivalPos="492.80" arrivalSpeed="12.93" duration="122.00" routeLength="1494.90" waitingTime="0.00" waitingCount="0" stopTime="0.00" timeLoss="10.17" rerouteNo="0" devices="tripinfo_f_0_3.1 emissions_f_0_3.1" vType="DEFAULT_VEHTYPE" speedFactor="0.97" vaporized="">
        <emissions CO_abs="2877.144178" CO2_abs="301685.752312" HC_abs="19.520420" PMx_abs="4.075486" NOx_abs="112.366500" fuel_abs="96224.355466" electricity_abs="0"/>
    </tripinfo>
    <tripinfo id="f_1_21.2" depart="19.00" departLane="G6G5_0" departPos="5.10" departSpeed="0.00" departDelay="2.00" arrival="134.00" arrivalLane="G4G3_0" arrivalPos="491.30" arrivalSpeed="13.84" duration="115.00" routeLength="1493.50" waitingTime="0.00" waitingCount="0" stopTime="0.00" timeLoss="7.57" rerouteNo="0" devices="tripinfo_f_1_21.2 emissions_f_1_21.2" vType="DEFAULT_VEHTYPE" speedFactor="1.01" vaporized="">
        <emissions CO_abs="2364.297274" CO2_abs="293740.635858" HC_abs="16.600732" PMx_abs="3.704901" NOx_abs="106.675535" fuel_abs="93690.216751" electricity_abs="0"/>
    </tripinfo>
    <tripinfo id="f_1_14.1" depart="4.00" departLane="C2C3_0" departPos="5.10" departSpeed="0.00" departDelay="2.00" arrival="135.00" arrivalLane="C4C5_0" arrivalPos="492.80" arrivalSpeed="13.01" duration="131.00" routeLength="1494.90" waitingTime="2.00" waitingCount="1" stopTime="0.00" timeLoss="16.10" rerouteNo="0" devices="tripinfo_f_1_14.1 emissions_f_1_14.1" vType="DEFAULT_VEHTYPE" speedFactor="0.94" vaporized="">
        <emissions CO_abs="4046.950105" CO2_abs="334170.996141" HC_abs="25.522188" PMx_abs="4.677202" NOx_abs="126.407276" fuel_abs="106585.993980" electricity_abs="0"/>
    </tripinfo>
    <tripinfo id="f_1_15.1" depart="12.00" departLane="C6C5_0" departPos="5.10" departSpeed="0.00" departDelay="0.00" arrival="135.00" arrivalLane="C4C3_0" arrivalPos="491.30" arrivalSpeed="13.46" duration="123.00" routeLength="1493.50" waitingTime="0.00" waitingCount="0" stopTime="0.00" timeLoss="17.12" rerouteNo="0" devices="tripinfo_f_1_15.1 emissions_f_1_15.1" vType="DEFAULT_VEHTYPE" speedFactor="1.02" vaporized="">
        <emissions CO_abs="3865.295899" CO2_abs="329587.964134" HC_abs="24.935391" PMx_abs="5.014197" NOx_abs="127.042400" fuel_abs="105123.702483" electricity_abs="0"/>
    </tripinfo>
    <tripinfo id="f_0_3.2" depart="15.00" departLane="C9C8_0" departPos="5.10" departSpeed="0.00" departDelay="2.00" arrival="135.00" arrivalLane="C7C6_0" arrivalPos="492.80" arrivalSpeed="13.18" duration="120.00" routeLength="1494.90" waitingTime="0.00" waitingCount="0" stopTime="0.00" timeLoss="10.61" rerouteNo="0" devices="tripinfo_f_0_3.2 emissions_f_0_3.2" vType="DEFAULT_VEHTYPE" speedFactor="0.98" vaporized="">
        <emissions CO_abs="3210.933012" CO2_abs="321677.818695" HC_abs="21.525027" PMx_abs="4.543454" NOx_abs="121.551436" fuel_abs="102600.758094" electricity_abs="0"/>
    </tripinfo>
    <tripinfo id="f_1_21.3" depart="22.00" departLane="G6G5_0" departPos="5.10" departSpeed="0.00" departDelay="4.00" arrival="135.00" arrivalLane="G4G3_0" arrivalPos="491.30" arrivalSpeed="14.82" duration="113.00" routeLength="1493.50" waitingTime="0.00" waitingCount="0" stopTime="0.00" timeLoss="14.71" rerouteNo="0" devices="tripinfo_f_1_21.3 emissions_f_1_21.3" vType="DEFAULT_VEHTYPE" speedFactor="1.10" vaporized="">
        <emissions CO_abs="3276.104134" CO2_abs="327971.462694" HC_abs="21.978002" PMx_abs="4.956035" NOx_abs="125.095962" fuel_abs="104607.817468" electricity_abs="0"/>
    </tripinfo>
    <tripinfo id="f_1_15.2" depart="15.00" departLane="C6C5_0" departPos="5.10" departSpeed="0.00" departDelay="0.00" arrival="136.00" arrivalLane="C4C3_0" arrivalPos="491.30" arrivalSpeed="13.45" duration="121.00" routeLength="1493.50" waitingTime="0.00" waitingCount="0" stopTime="0.00" timeLoss="17.76" rerouteNo="0" devices="tripinfo_f_1_15.2 emissions_f_1_15.2" vType="DEFAULT_VEHTYPE" speedFactor="1.04" vaporized="">
        <emissions CO_abs="3743.076154" CO2_abs="337966.298369" HC_abs="24.353939" PMx_abs="5.029897" NOx_abs="129.317806" fuel_abs="107795.985638" electricity_abs="0"/>
    </tripinfo>
    <tripinfo id="f_1_14.2" depart="9.00" departLane="C2C3_0" departPos="5.10" departSpeed="0.00" departDelay="0.00" arrival="137.00" arrivalLane="C4C5_0" arrivalPos="492.80" arrivalSpeed="14.67" duration="128.00" routeLength="1494.90" waitingTime="0.00" waitingCount="0" stopTime="0.00" timeLoss="32.91" rerouteNo="0" devices="tripinfo_f_1_14.2 emissions_f_1_14.2" vType="DEFAULT_VEHTYPE" speedFactor="1.14" vaporized="">
        <emissions CO_abs="4792.447689" CO2_abs="360657.458285" HC_abs="29.692002" PMx_abs="5.791482" NOx_abs="141.035027" fuel_abs="115033.438342" electricity_abs="0"/>
    </tripinfo>
    <tripinfo id="f_0_3.3" depart="24.00" departLane="C9C8_0" departPos="5.10" departSpeed="0.00" departDelay="0.00" arrival="137.00" arrivalLane="C7C6_0" arrivalPos="492.80" arrivalSpeed="14.21" duration="113.00" routeLength="1494.90" waitingTime="0.00" waitingCount="0" stopTime="0.00" timeLoss="11.13" rerouteNo="0" devices="tripinfo_f_0_3.3 emissions_f_0_3.3" vType="DEFAULT_VEHTYPE" speedFactor="1.06" vaporized="">
        <emissions CO_abs="3162.854913" CO2_abs="322020.998150" HC_abs="21.416915" PMx_abs="4.827703" NOx_abs="123.095862" fuel_abs="102709.889444" electricity_abs="0"/>
    </tripinfo>
    <tripinfo id="f_1_9.1" depart="4.00" departLane="G9G8_0" departPos="5.10" departSpeed="0.00" departDelay="1.00" arrival="138.00" arrivalLane="G7G6_0" arrivalPos="492.80" arrivalSpeed="11.67" duration="134.00" routeLength="1494.90" waitingTime="0.00" waitingCount="0" stopTime="0.00" timeLoss="10.64" rerouteNo="0" devices="tripinfo_f_1_9.1 emissions_f_1_9.1" vType="DEFAULT_VEHTYPE" speedFactor="0.87" vaporized="">
        <emissions CO_abs="3340.428617" CO2_abs="313682.144520" HC_abs="22.221403" PMx_abs="4.040318" NOx_abs="117.092757" fuel_abs="100051.060634" electricity_abs="0"/>
    </tripinfo>
    <tripinfo id="f_0_2.2" depart="7.00" departLane="C5C6_0" departPos="5.10" departSpeed="0.00" departDelay="0.00" arrival="138.00" arrivalLane="C7C8_0" arrivalPos="491.30" arrivalSpeed="11.27" duration="131.00" routeLength="1493.50" waitingTime="0.00" waitingCount="0" stopTime="0.00" timeLoss="11.51" rerouteNo="0" devices="tripinfo_f_0_2.2 emissions_f_0_2.2" vType="DEFAULT_VEHTYPE" speedFactor="0.90" vaporized="">
        <emissions CO_abs="3195.163753" CO2_abs="298732.594066" HC_abs="21.210752" PMx_abs="3.974157" NOx_abs="112.222184" fuel_abs="95282.661172" electricity_abs="0"/>
    </tripinfo>
    <tripinfo id="f_1_14.3" depart="15.00" departLane="C2C3_0" departPos="5.10" departSpeed="0.00" departDelay="0.00" arrival="138.00" arrivalLane="C4C5_0" arrivalPos="492.80" arrivalSpeed="13.01" duration="123.00" routeLength="1494.90" waitingTime="0.00" waitingCount="0" stopTime="0.00" timeLoss="15.42" rerouteNo="0" devices="tripinfo_f_1_14.3 emissions_f_1_14.3" vType="DEFAULT_VEHTYPE" speedFactor="1.00" vaporized="">
        <emissions CO_abs="3591.001439" CO2_abs="330066.503925" HC_abs="23.609091" PMx_abs="4.822203" NOx_abs="125.583702" fuel_abs="105276.406814" electricity_abs="0"/>
    </tripinfo>
    <tripinfo id="f_1_15.3" depart="20.00" departLane="C6C5_0" departPos="5.10" departSpeed="0.00" departDelay="0.00" arrival="138.00" arrivalLane="C4C3_0" arrivalPos="491.30" arrivalSpeed="14.18" duration="118.00" routeLength="1493.50" waitingTime="0.00" waitingCount="0" stopTime="0.00" timeLoss="16.62" rerouteNo="0" devices="tripinfo_f_1_15.3 emissions_f_1_15.3" vType="DEFAULT_VEHTYPE" speedFactor="1.06" vaporized="">
        <emissions CO_abs="3388.043103" CO2_abs="326546.006781" HC_abs="22.470953" PMx_abs="4.793707" NOx_abs="123.977098" fuel_abs="104153.394066" electricity_abs="0"/>
    </tripinfo>
    <tripinfo id="f_1_20.0" depart="0.00" departLane="G2G3_0" departPos="5.10" departSpeed="0.00" departDelay="0.00" arrival="140.00" arrivalLane="G4G5_0" arrivalPos="492.80" arrivalSpeed="11.41" duration="140.00" routeLength="1494.90" waitingTime="0.00" waitingCount="0" stopTime="0.00" timeLoss="9.86" rerouteNo="0" devices="tripinfo_f_1_20.0 emissions_f_1_20.0" vType="DEFAULT_VEHTYPE" speedFactor="0.83" vaporized="">
        <emissions CO_abs="3436.416148" CO2_abs="306299.775717" HC_abs="22.561759" PMx_abs="3.878411" NOx_abs="114.289217" fuel_abs="97696.581761" electricity_abs="0"/>
    </tripinfo>
    <tripinfo id="f_1_9.2" depart="7.00" departLane="G9G8_0" departPos="5.10" departSpeed="0.00" departDelay="3.00" arrival="140.00" arrivalLane="G7G6_0" arrivalPos="492.80" arrivalSpeed="12.27" duration="133.00" routeLength="1494.90" waitingTime="0.00" waitingCount="0" stopTime="0.00" timeLoss="19.27" rerouteNo="0" devices="tripinfo_f_1_9.2 emissions_f_1_9.2" vType="DEFAULT_VEHTYPE" speedFactor="0.95" vaporized="">
        <emissions CO_abs="3836.694144" CO2_abs="333701.171949" HC_abs="25.055355" PMx_abs="4.799726" NOx_abs="128.172711" fuel_abs="106435.851963" electricity_abs="0"/>
    </tripinfo>
    <tripinfo id="f_0_2.3" depart="10.00" departLane="C5C6_0" departPos="5.10" departSpeed="0.00" departDelay="2.00" arrival="140.00" arrivalLane="C7C8_0" arrivalPos="491.30" arrivalSpeed="11.38" duration="130.00" routeLength="1493.50" waitingTime="0.00" waitingCount="0" stopTime="0.00" timeLoss="10.55" rerouteNo="0" devices="tripinfo_f_0_2.3 emissions_f_0_2.3" vType="DEFAULT_VEHTYPE" speedFactor="0.90" vaporized="">
        <emissions CO_abs="3190.938906" CO2_abs="307798.749628" HC_abs="21.277950" PMx_abs="4.042440" NOx_abs="114.957667" fuel_abs="98174.386808" electricity_abs="0"/>
    </tripinfo>
    <tripinfo id="f_1_14.4" depart="18.00" departLane="C2C3_0" departPos="5.10" departSpeed="0.00" departDelay="0.00" arrival="140.00" arrivalLane="C4C5_0" arrivalPos="492.80" arrivalSpeed="15.57" duration="122.00" routeLength="1494.90" waitingTime="0.00" waitingCount="0" stopTime="0.00" timeLoss="25.45" rerouteNo="0" devices="tripinfo_f_1_14.4 emissions_f_1_14.4" vType="DEFAULT_VEHTYPE" speedFactor="1.12" vaporized="">
        <emissions CO_abs="4464.380120" CO2_abs="368196.750622" HC_abs="28.524874" PMx_abs="5.948204" NOx_abs="144.265345" fuel_abs="117437.833245" electricity_abs="0"/>
    </tripinfo>
    <tripinfo id="f_1_20.1" depart="3.00" departLane="G2G3_0" departPos="5.10" departSpeed="0.00" departDelay="2.00" arrival="142.00" arrivalLane="G4G5_0" arrivalPos="492.80" arrivalSpeed="14.60" duration="139.00" routeLength="1494.90" waitingTime="0.00" waitingCount="0" stopTime="0.00" timeLoss="42.29" rerouteNo="0" devices="tripinfo_f_1_20.1 emissions_f_1_20.1" vType="DEFAULT_VEHTYPE" speedFactor="1.12" vaporized="">
        <emissions CO_abs="4495.901088" CO2_abs="350469.341541" HC_abs="28.541203" PMx_abs="5.320410" NOx_abs="137.115429" fuel_abs="111784.092256" electricity_abs="0"/>
    </tripinfo>
    <tripinfo id="f_1_9.3" depart="10.00" departLane="G9G8_0" departPos="5.10" departSpeed="0.00" departDelay="4.00" arrival="142.00" arrivalLane="G7G6_0" arrivalPos="492.80" arrivalSpeed="12.65" duration="132.00" routeLength="1494.90" waitingTime="0.00" waitingCount="0" stopTime="0.00" timeLoss="20.84" rerouteNo="0" devices="tripinfo_f_1_9.3 emissions_f_1_9.3" vType="DEFAULT_VEHTYPE" speedFactor="0.97" vaporized="">
        <emissions CO_abs="4062.847268" CO2_abs="339081.306093" HC_abs="26.006252" PMx_abs="5.128005" NOx_abs="131.672407" fuel_abs="108151.675683" electricity_abs="0"/>
    </tripinfo>
    <tripinfo id="f_0_2.4" depart="13.00" departLane="C5C6_0" departPos="5.10" departSpeed="0.00" departDelay="0.00" arrival="142.00" arrivalLane="C7C8_0" arrivalPos="491.30" arrivalSpeed="12.51" duration="129.00" routeLength="1493.50" waitingTime="0.00" waitingCount="0" stopTime="0.00" timeLoss="16.07" rerouteNo="0" devices="tripinfo_f_0_2.4 emissions_f_0_2.4" vType="DEFAULT_VEHTYPE" speedFactor="0.96" vaporized="">
        <emissions CO_abs="3836.324094" CO2_abs="335621.812421" HC_abs="25.078809" PMx_abs="5.021526" NOx_abs="129.985287" fuel_abs="107048.217987" electricity_abs="0"/>
    </tripinfo>
    <tripinfo id="f_1_14.5" depart="21.00" departLane="C2C3_0" departPos="5.10" departSpeed="0.00" departDelay="1.00" arrival="142.00" arrivalLane="C4C5_0" arrivalPos="492.80" arrivalSpeed="13.20" duration="121.00" routeLength="1494.90" waitingTime="0.00" waitingCount="0" stopTime="0.00" timeLoss="16.32" rerouteNo="0" devices="tripinfo_f_1_14.5 emissions_f_1_14.5" vType="DEFAULT_VEHTYPE" speedFactor="1.03" vaporized="">
        <emissions CO_abs="3782.059417" CO2_abs="348179.163276" HC_abs="24.643482" PMx_abs="5.124584" NOx_abs="132.460219" fuel_abs="111053.447252" electricity_abs="0"/>
    </tripinfo>
    <tripinfo id="f_1_20.2" depart="6.00" departLane="G2G3_0" departPos="5.10" departSpeed="0.00" departDelay="4.00" arrival="143.00" arrivalLane="G4G5_0" arrivalPos="492.80" arrivalSpeed="14.07" duration="137.00" routeLength="1494.90" waitingTime="0.00" waitingCount="0" stopTime="0.00" timeLoss="31.10" rerouteNo="0" devices="tripinfo_f_1_20.2 emissions_f_1_20.2" vType="DEFAULT_VEHTYPE" speedFactor="1.02" vaporized="">
        <emissions CO_abs="4763.987717" CO2_abs="364154.107458" HC_abs="30.148564" PMx_abs="5.846782" NOx_abs="144.723010" fuel_abs="116148.599662" electricity_abs="0"/>
    </tripinfo>
    <tripinfo id="f_0_2.5" depart="19.00" departLane="C5C6_0" departPos="5.10" departSpeed="0.00" departDelay="0.00" arrival="144.00" arrivalLane="C7C8_0" arrivalPos="491.30" arrivalSpeed="12.94" duration="125.00" routeLength="1493.50" waitingTime="0.00" waitingCount="0" stopTime="0.00" timeLoss="12.00" rerouteNo="0" devices="tripinfo_f_0_2.5 emissions_f_0_2.5" vType="DEFAULT_VEHTYPE" speedFactor="0.96" vaporized="">
        <emissions CO_abs="3375.622600" CO2_abs="326631.739257" HC_abs="22.591155" PMx_abs="4.638612" NOx_abs="124.274249" fuel_abs="104180.863888" electricity_abs="0"/>
    </tripinfo>
    <tripinfo id="f_1_20.3" depart="9.00" departLane="G2G3_0" departPos="5.10" departSpeed="0.00" departDelay="6.00" arrival="145.00" arrivalLane="G4G5_0" arrivalPos="492.80" arrivalSpeed="12.72" duration="136.00" routeLength="1494.90" waitingTime="0.00" waitingCount="0" stopTime="0.00" timeLoss="18.49" rerouteNo="0" devices="tripinfo_f_1_20.3 emissions_f_1_20.3" vType="DEFAULT_VEHTYPE" speedFactor="0.92" vaporized="">
        <emissions CO_abs="4336.420382" CO2_abs="351561.503152" HC_abs="27.736571" PMx_abs="5.256465" NOx_abs="136.733735" fuel_abs="112132.426618" electricity_abs="0"/>
    </tripinfo>
    <tripinfo id="f_1_20.4" depart="12.00" departLane="G2G3_0" departPos="5.10" departSpeed="0.00" departDelay="1.00" arrival="147.00" arrivalLane="G4G5_0" arrivalPos="492.80" arrivalSpeed="13.59" duration="135.00" routeLength="1494.90" waitingTime="0.00" waitingCount="0" stopTime="0.00" timeLoss="29.30" rerouteNo="0" devices="tripinfo_f_1_20.4 emissions_f_1_20.4" vType="DEFAULT_VEHTYPE" speedFactor="1.02" vaporized="">
        <emissions CO_abs="4878.609437" CO2_abs="377939.379630" HC_abs="30.922735" PMx_abs="5.989606" NOx_abs="149.295212" fuel_abs="120545.541355" electricity_abs="0"/>
    </tripinfo>
    <tripinfo id="f_1_6.0" depart="1.00" departLane="E7F7_0" departPos="5.10" departSpeed="0.00" departDelay="0.00" arrival="148.00" arrivalLane="H7I7_0" arrivalPos="491.30" arrivalSpeed="13.65" duration="147.00" routeLength="1993.50" waitingTime="0.00" waitingCount="0" stopTime="0.00" timeLoss="9.76" rerouteNo="0" devices="tripinfo_f_1_6.0 emissions_f_1_6.0" vType="DEFAULT_VEHTYPE" speedFactor="1.05" vaporized="">
        <emissions CO_abs="2692.946933" CO2_abs="365608.768245" HC_abs="19.391391" PMx_abs="4.558565" NOx_abs="131.442716" fuel_abs="116612.896260" electricity_abs="0"/>
    </tripinfo>
    <tripinfo id="f_1_20.5" depart="16.00" departLane="G2G3_0" departPos="5.10" departSpeed="0.00" departDelay="4.00" arrival="149.00" arrivalLane="G4G5_0" arrivalPos="492.80" arrivalSpeed="12.78" duration="133.00" routeLength="1494.90" waitingTime="0.00" waitingCount="0" stopTime="0.00" timeLoss="17.98" rerouteNo="0" devices="tripinfo_f_1_20.5 emissions_f_1_20.5" vType="DEFAULT_VEHTYPE" speedFactor="0.94" vaporized="">
        <emissions CO_abs="4427.440617" CO2_abs="367923.422420" HC_abs="28.567047" PMx_abs="5.612574" NOx_abs="143.735031" fuel_abs="117350.952110" electricity_abs="0"/>
    </tripinfo>
    <tripinfo id="f_1_9.4" depart="13.00" departLane="G9G8_0" departPos="5.10" departSpeed="0.00" departDelay="5.00" arrival="150.00" arrivalLane="G7G6_0" arrivalPos="492.80" arrivalSpeed="11.74" duration="137.00" routeLength="1494.90" waitingTime="0.00" waitingCount="0" stopTime="0.00" timeLoss="10.26" rerouteNo="0" devices="tripinfo_f_1_9.4 emissions_f_1_9.4" vType="DEFAULT_VEHTYPE" speedFactor="0.85" vaporized="">
        <emissions CO_abs="3199.500667" CO2_abs="309892.036904" HC_abs="21.429641" PMx_abs="3.708455" NOx_abs="113.614909" fuel_abs="98842.485937" electricity_abs="0"/>
    </tripinfo>
    <tripinfo id="f_1_18.0" depart="1.00" departLane="E4F4_0" departPos="5.10" departSpeed="0.00" departDelay="0.00" arrival="151.00" arrivalLane="H4I4_0" arrivalPos="491.30" arrivalSpeed="13.00" duration="150.00" routeLength="1993.50" waitingTime="0.00" waitingCount="0" stopTime="0.00" timeLoss="9.95" rerouteNo="0" devices="tripinfo_f_1_18.0 emissions_f_1_18.0" vType="DEFAULT_VEHTYPE" speedFactor="1.03" vaporized="">