<?xml version="1.0" encoding="UTF-8"?>

<!-- generated on 2024-08-22 13:35:24 by Eclipse SUMO sumo Version 1.17.0
<configuration xmlns:xsi="http://www.w3.org/2001/XMLSchema-instance" xsi:noNamespaceSchemaLocation="http://sumo.dlr.de/xsd/sumoConfiguration.xsd">

    <input>
        <net-file value="double_static.net.xml"/>
        <route-files value="double_2.rou.xml"/>
    </input>

    <output>
        <tripinfo-output value="emissions_test\z_static_2_emissions_tripinfo_double.xml"/>
    </output>

    <processing>
        <time-to-teleport value="-1"/>
    </processing>

    <emissions>
        <device.emissions.probability value="1.0"/>
    </emissions>

    <traci_server>
        <remote-port value="58205"/>
    </traci_server>

</configuration>
-->

<tripinfos xmlns:xsi="http://www.w3.org/2001/XMLSchema-instance" xsi:noNamespaceSchemaLocation="http://sumo.dlr.de/xsd/tripinfo_file.xsd">
    <tripinfo id="f_0_14.0" depart="3.00" departLane="C2C3_0" departPos="5.10" departSpeed="0.00" departDelay="0.00" arrival="127.00" arrivalLane="C4C5_0" arrivalPos="492.80" arrivalSpeed="14.44" duration="124.00" routeLength="1494.90" waitingTime="14.00" waitingCount="1" stopTime="0.00" timeLoss="27.46" rerouteNo="0" devices="tripinfo_f_0_14.0 emissions_f_0_14.0" vType="DEFAULT_VEHTYPE" speedFactor="1.12" vaporized="">
        <emissions CO_abs="5781.172277" CO2_abs="371694.068464" HC_abs="34.047556" PMx_abs="5.933091" NOx_abs="143.058912" fuel_abs="118554.242946" electricity_abs="0"/>
    </tripinfo>
    <tripinfo id="f_0_2.0" depart="0.00" departLane="C5C6_0" departPos="5.10" departSpeed="0.00" departDelay="0.00" arrival="128.00" arrivalLane="C7C8_0" arrivalPos="491.30" arrivalSpeed="13.82" duration="128.00" routeLength="1493.50" waitingTime="15.00" waitingCount="1" stopTime="0.00" timeLoss="26.41" rerouteNo="0" devices="tripinfo_f_0_2.0 emissions_f_0_2.0" vType="DEFAULT_VEHTYPE" speedFactor="1.06" vaporized="">
        <emissions CO_abs="5550.290357" CO2_abs="350568.859746" HC_abs="32.576919" PMx_abs="5.432357" NOx_abs="134.318072" fuel_abs="111816.456714" electricity_abs="0"/>
    </tripinfo>
    <tripinfo id="f_0_16.0" depart="0.00" departLane="D2D3_0" departPos="5.10" departSpeed="0.00" departDelay="0.00" arrival="128.00" arrivalLane="D4D5_0" arrivalPos="492.80" arrivalSpeed="14.87" duration="128.00" routeLength="1494.90" waitingTime="14.00" waitingCount="1" stopTime="0.00" timeLoss="28.16" rerouteNo="0" devices="tripinfo_f_0_16.0 emissions_f_0_16.0" vType="DEFAULT_VEHTYPE" speedFactor="1.08" vaporized="">
        <emissions CO_abs="5808.905729" CO2_abs="356082.633517" HC_abs="33.951997" PMx_abs="5.701785" NOx_abs="138.102325" fuel_abs="113574.999663" electricity_abs="0"/>
    </tripinfo>
    <tripinfo id="f_0_14.1" depart="10.00" departLane="C2C3_0" departPos="5.10" departSpeed="0.00" departDelay="0.00" arrival="128.00" arrivalLane="C4C5_0" arrivalPos="492.80" arrivalSpeed="15.31" duration="118.00" routeLength="1494.90" waitingTime="11.00" waitingCount="1" stopTime="0.00" timeLoss="26.11" rerouteNo="0" devices="tripinfo_f_0_14.1 emissions_f_0_14.1" vType="DEFAULT_VEHTYPE" speedFactor="1.17" vaporized="">
        <emissions CO_abs="5121.522042" CO2_abs="357387.619410" HC_abs="31.015717" PMx_abs="5.727480" NOx_abs="137.260272" fuel_abs="113990.879766" electricity_abs="0"/>
    </tripinfo>
    <tripinfo id="f_0_17.0" depart="1.00" departLane="D6D5_0" departPos="5.10" departSpeed="0.00" departDelay="0.00" arrival="129.00" arrivalLane="D4D3_0" arrivalPos="491.30" arrivalSpeed="14.31" duration="128.00" routeLength="1493.50" waitingTime="12.00" waitingCount="1" stopTime="0.00" timeLoss="24.69" rerouteNo="0" devices="tripinfo_f_0_17.0 emissions_f_0_17.0" vType="DEFAULT_VEHTYPE" speedFactor="1.05" vaporized="">
        <emissions CO_abs="5358.022558" CO2_abs="357631.298910" HC_abs="32.311862" PMx_abs="5.689192" NOx_abs="138.932536" fuel_abs="114068.743169" electricity_abs="0"/>
    </tripinfo>
    <tripinfo id="f_0_3.0" depart="11.00" departLane="C9C8_0" departPos="5.10" departSpeed="0.00" departDelay="0.00" arrival="129.00" arrivalLane="C7C6_0" arrivalPos="492.80" arrivalSpeed="14.05" duration="118.00" routeLength="1494.90" waitingTime="0.00" waitingCount="0" stopTime="0.00" timeLoss="12.34" rerouteNo="0" devices="tripinfo_f_0_3.0 emissions_f_0_3.0" vType="DEFAULT_VEHTYPE" speedFactor="1.02" vaporized="">
        <emissions CO_abs="3245.199742" CO2_abs="320752.499335" HC_abs="21.632709" PMx_abs="4.608303" NOx_abs="120.949355" fuel_abs="102305.596287" electricity_abs="0"/>
    </tripinfo>
    <tripinfo id="f_0_10.0" depart="0.00" departLane="H5H6_0" departPos="5.10" departSpeed="0.00" departDelay="0.00" arrival="130.00" arrivalLane="H7H8_0" arrivalPos="491.30" arrivalSpeed="12.85" duration="130.00" routeLength="1493.50" waitingTime="10.00" waitingCount="1" stopTime="0.00" timeLoss="23.56" rerouteNo="0" devices="tripinfo_f_0_10.0 emissions_f_0_10.0" vType="DEFAULT_VEHTYPE" speedFactor="1.01" vaporized="">
        <emissions CO_abs="4735.190023" CO2_abs="339254.979393" HC_abs="28.718657" PMx_abs="4.910179" NOx_abs="128.347766" fuel_abs="108207.815808" electricity_abs="0"/>
    </tripinfo>
    <tripinfo id="f_0_9.0" depart="3.00" departLane="G9G8_0" departPos="5.10" departSpeed="0.00" departDelay="0.00" arrival="131.00" arrivalLane="G7G6_0" arrivalPos="492.80" arrivalSpeed="13.54" duration="128.00" routeLength="1494.90" waitingTime="8.00" waitingCount="1" stopTime="0.00" timeLoss="22.22" rerouteNo="0" devices="tripinfo_f_0_9.0 emissions_f_0_9.0" vType="DEFAULT_VEHTYPE" speedFactor="1.03" vaporized="">
        <emissions CO_abs="4555.658052" CO2_abs="341746.199404" HC_abs="28.156404" PMx_abs="5.006915" NOx_abs="129.901578" fuel_abs="109002.221699" electricity_abs="0"/>
    </tripinfo>
    <tripinfo id="f_0_14.2" depart="13.00" departLane="C2C3_0" departPos="5.10" departSpeed="0.00" departDelay="1.00" arrival="131.00" arrivalLane="C4C5_0" arrivalPos="492.80" arrivalSpeed="14.75" duration="118.00" routeLength="1494.90" waitingTime="5.00" waitingCount="1" stopTime="0.00" timeLoss="19.32" rerouteNo="0" devices="tripinfo_f_0_14.2 emissions_f_0_14.2" vType="DEFAULT_VEHTYPE" speedFactor="1.09" vaporized="">
        <emissions CO_abs="4284.815954" CO2_abs="338796.120529" HC_abs="26.363669" PMx_abs="5.072543" NOx_abs="127.935299" fuel_abs="108060.968581" electricity_abs="0"/>
    </tripinfo>
    <tripinfo id="f_0_2.1" depart="3.00" departLane="C5C6_0" departPos="5.10" departSpeed="0.00" departDelay="2.00" arrival="132.00" arrivalLane="C7C8_0" arrivalPos="491.30" arrivalSpeed="13.86" duration="129.00" routeLength="1493.50" waitingTime="9.00" waitingCount="1" stopTime="0.00" timeLoss="23.96" rerouteNo="0" devices="tripinfo_f_0_2.1 emissions_f_0_2.1" vType="DEFAULT_VEHTYPE" speedFactor="1.03" vaporized="">
        <emissions CO_abs="4809.827687" CO2_abs="345751.048351" HC_abs="29.376229" PMx_abs="5.160984" NOx_abs="132.081109" fuel_abs="110279.597833" electricity_abs="0"/>
    </tripinfo>
    <tripinfo id="f_0_10.1" depart="9.00" departLane="H5H6_0" departPos="5.10" departSpeed="0.00" departDelay="0.00" arrival="132.00" arrivalLane="H7H8_0" arrivalPos="491.30" arrivalSpeed="15.48" duration="123.00" routeLength="1493.50" waitingTime="10.00" waitingCount="1" stopTime="0.00" timeLoss="31.27" rerouteNo="0" devices="tripinfo_f_0_10.1 emissions_f_0_10.1" vType="DEFAULT_VEHTYPE" speedFactor="1.18" vaporized="">
        <emissions CO_abs="5770.618929" CO2_abs="380309.879855" HC_abs="34.673446" PMx_abs="6.438966" NOx_abs="150.276910" fuel_abs="121301.780464" electricity_abs="0"/>
    </tripinfo>
    <tripinfo id="f_0_5.0" depart="0.00" departLane="D9D8_0" departPos="5.10" departSpeed="0.00" departDelay="0.00" arrival="133.00" arrivalLane="D7D6_0" arrivalPos="492.80" arrivalSpeed="12.75" duration="133.00" routeLength="1494.90" waitingTime="4.00" waitingCount="1" stopTime="0.00" timeLoss="17.81" rerouteNo="0" devices="tripinfo_f_0_5.0 emissions_f_0_5.0" vType="DEFAULT_VEHTYPE" speedFactor="0.94" vaporized="">
        <emissions CO_abs="4100.409395" CO2_abs="332133.780423" HC_abs="25.872103" PMx_abs="4.570245" NOx_abs="125.014670" fuel_abs="105936.393472" electricity_abs="0"/>
    </tripinfo>
    <tripinfo id="f_0_16.1" depart="3.00" departLane="D2D3_0" departPos="5.10" departSpeed="0.00" departDelay="0.00" arrival="133.00" arrivalLane="D4D5_0" arrivalPos="492.80" arrivalSpeed="13.20" duration="130.00" routeLength="1494.90" waitingTime="6.00" waitingCount="1" stopTime="0.00" timeLoss="21.07" rerouteNo="0" devices="tripinfo_f_0_16.1 emissions_f_0_16.1" vType="DEFAULT_VEHTYPE" speedFactor="0.99" vaporized="">
        <emissions CO_abs="4485.489064" CO2_abs="333390.092007" HC_abs="27.516061" PMx_abs="4.808922" NOx_abs="126.426839" fuel_abs="106337.068704" electricity_abs="0"/>
    </tripinfo>
    <tripinfo id="f_0_9.1" depart="6.00" departLane="G9G8_0" departPos="5.10" departSpeed="0.00" departDelay="0.00" arrival="133.00" arrivalLane="G7G6_0" arrivalPos="492.80" arrivalSpeed="13.48" duration="127.00" routeLength="1494.90" waitingTime="6.00" waitingCount="1" stopTime="0.00" timeLoss="19.62" rerouteNo="0" devices="tripinfo_f_0_9.1 emissions_f_0_9.1" vType="DEFAULT_VEHTYPE" speedFactor="1.01" vaporized="">
        <emissions CO_abs="4583.071230" CO2_abs="342199.128454" HC_abs="28.120617" PMx_abs="5.104166" NOx_abs="130.593369" fuel_abs="109146.569621" electricity_abs="0"/>
    </tripinfo>
    <tripinfo id="f_0_15.0" depart="16.00" departLane="C6C5_0" departPos="5.10" departSpeed="0.00" departDelay="0.00" arrival="133.00" arrivalLane="C4C3_0" arrivalPos="491.30" arrivalSpeed="13.71" duration="117.00" routeLength="1493.50" waitingTime="0.00" waitingCount="0" stopTime="0.00" timeLoss="8.20" rerouteNo="0" devices="tripinfo_f_0_15.0 emissions_f_0_15.0" vType="DEFAULT_VEHTYPE" speedFactor="1.00" vaporized="">
        <emissions CO_abs="2575.205294" CO2_abs="290313.952067" HC_abs="17.762561" PMx_abs="3.881179" NOx_abs="107.480503" fuel_abs="92597.167503" electricity_abs="0"/>
    </tripinfo>
    <tripinfo id="f_0_8.0" depart="2.00" departLane="G5G6_0" departPos="5.10" departSpeed="0.00" departDelay="0.00" arrival="134.00" arrivalLane="G7G8_0" arrivalPos="491.30" arrivalSpeed="12.06" duration="132.00" routeLength="1493.50" waitingTime="0.00" waitingCount="0" stopTime="0.00" timeLoss="9.71" rerouteNo="0" devices="tripinfo_f_0_8.0 emissions_f_0_8.0" vType="DEFAULT_VEHTYPE" speedFactor="0.89" vaporized="">
        <emissions CO_abs="3100.112214" CO2_abs="300986.933929" HC_abs="20.867905" PMx_abs="3.967501" NOx_abs="112.850368" fuel_abs="96001.676897" electricity_abs="0"/>
    </tripinfo>
    <tripinfo id="f_0_15.1" depart="20.00" departLane="C6C5_0" departPos="5.10" departSpeed="0.00" departDelay="0.00" arrival="134.00" arrivalLane="C4C3_0" arrivalPos="491.30" arrivalSpeed="13.98" duration="114.00" routeLength="1493.50" waitingTime="0.00" waitingCount="0" stopTime="0.00" timeLoss="11.96" rerouteNo="0" devices="tripinfo_f_0_15.1 emissions_f_0_15.1" vType="DEFAULT_VEHTYPE" speedFactor="1.06" vaporized="">
        <emissions CO_abs="3009.613113" CO2_abs="302950.748706" HC_abs="20.259607" PMx_abs="4.483863" NOx_abs="115.226543" fuel_abs="96627.449880" electricity_abs="0"/>
    </tripinfo>
    <tripinfo id="f_0_8.1" depart="4.00" departLane="G5G6_0" departPos="5.10" departSpeed="0.00" departDelay="1.00" arrival="135.00" arrivalLane="G7G8_0" arrivalPos="491.30" arrivalSpeed="13.28" duration="131.00" routeLength="1493.50" waitingTime="0.00" waitingCount="0" stopTime="0.00" timeLoss="32.25" rerouteNo="0" devices="tripinfo_f_0_8.1 emissions_f_0_8.1" vType="DEFAULT_VEHTYPE" speedFactor="1.09" vaporized="">
        <emissions CO_abs="4270.051248" CO2_abs="347466.039625" HC_abs="27.378765" PMx_abs="5.411028" NOx_abs="136.334243" fuel_abs="110825.908426" electricity_abs="0"/>
    </tripinfo>
    <tripinfo id="f_0_5.1" depart="4.00" departLane="D9D8_0" departPos="5.10" departSpeed="0.00" departDelay="0.00" arrival="135.00" arrivalLane="D7D6_0" arrivalPos="492.80" arrivalSpeed="12.55" duration="131.00" routeLength="1494.90" waitingTime="3.00" waitingCount="1" stopTime="0.00" timeLoss="16.17" rerouteNo="0" devices="tripinfo_f_0_5.1 emissions_f_0_5.1" vType="DEFAULT_VEHTYPE" speedFactor="0.94" vaporized="">
        <emissions CO_abs="3959.903177" CO2_abs="328843.128838" HC_abs="25.071502" PMx_abs="4.578274" NOx_abs="123.896113" fuel_abs="104886.688915" electricity_abs="0"/>
    </tripinfo>
    <tripinfo id="f_0_10.2" depart="13.00" departLane="H5H6_0" departPos="5.10" departSpeed="0.00" departDelay="0.00" arrival="135.00" arrivalLane="H7H8_0" arrivalPos="491.30" arrivalSpeed="13.30" duration="122.00" routeLength="1493.50" waitingTime="0.00" waitingCount="0" stopTime="0.00" timeLoss="13.50" rerouteNo="0" devices="tripinfo_f_0_10.2 emissions_f_0_10.2" vType="DEFAULT_VEHTYPE" speedFactor="1.00" vaporized="">
        <emissions CO_abs="3181.048008" CO2_abs="314337.670971" HC_abs="20.987516" PMx_abs="4.296422" NOx_abs="117.223326" fuel_abs="100259.777739" electricity_abs="0"/>
    </tripinfo>
    <tripinfo id="f_0_10.3" depart="16.00" departLane="H5H6_0" departPos="5.10" departSpeed="0.00" departDelay="1.00" arrival="136.00" arrivalLane="H7H8_0" arrivalPos="491.30" arrivalSpeed="14.42" duration="120.00" routeLength="1493.50" waitingTime="0.00" waitingCount="0" stopTime="0.00" timeLoss="21.80" rerouteNo="0" devices="tripinfo_f_0_10.3 emissions_f_0_10.3" vType="DEFAULT_VEHTYPE" speedFactor="1.10" vaporized="">
        <emissions CO_abs="3781.552826" CO2_abs="330941.130047" HC_abs="24.406026" PMx_abs="5.122581" NOx_abs="128.097081" fuel_abs="105555.117508" electricity_abs="0"/>
    </tripinfo>
    <tripinfo id="f_1_15.0" depart="25.00" departLane="C6C5_0" departPos="5.10" departSpeed="0.00" departDelay="0.00" arrival="136.00" arrivalLane="C4C3_0" arrivalPos="491.30" arrivalSpeed="15.25" duration="111.00" routeLength="1493.50" waitingTime="0.00" waitingCount="0" stopTime="0.00" timeLoss="16.80" rerouteNo="0" devices="tripinfo_f_1_15.0 emissions_f_1_15.0" vType="DEFAULT_VEHTYPE" speedFactor="1.15" vaporized="">
        <emissions CO_abs="3424.974792" CO2_abs="343150.202111" HC_abs="23.037756" PMx_abs="5.255472" NOx_abs="131.329027" fuel_abs="109449.048816" electricity_abs="0"/>
    </tripinfo>
    <tripinfo id="f_0_9.2" depart="9.00" departLane="G9G8_0" departPos="5.10" departSpeed="0.00" departDelay="1.00" arrival="137.00" arrivalLane="G7G6_0" arrivalPos="492.80" arrivalSpeed="12.32" duration="128.00" routeLength="1494.90" waitingTime="0.00" waitingCount="0" stopTime="0.00" timeLoss="14.11" rerouteNo="0" devices="tripinfo_f_0_9.2 emissions_f_0_9.2" vType="DEFAULT_VEHTYPE" speedFactor="0.95" vaporized="">
        <emissions CO_abs="3470.842306" CO2_abs="314558.643026" HC_abs="22.719838" PMx_abs="4.432603" NOx_abs="119.333128" fuel_abs="100330.276601" electricity_abs="0"/>
    </tripinfo>
    <tripinfo id="f_0_5.2" depart="11.00" departLane="D9D8_0" departPos="5.10" departSpeed="0.00" departDelay="0.00" arrival="137.00" arrivalLane="D7D6_0" arrivalPos="492.80" arrivalSpeed="12.81" duration="126.00" routeLength="1494.90" waitingTime="0.00" waitingCount="0" stopTime="0.00" timeLoss="14.70" rerouteNo="0" devices="tripinfo_f_0_5.2 emissions_f_0_5.2" vType="DEFAULT_VEHTYPE" speedFactor="0.97" vaporized="">
        <emissions CO_abs="3676.588998" CO2_abs="327971.364845" HC_abs="23.851928" PMx_abs="4.709279" NOx_abs="124.650211" fuel_abs="104608.284114" electricity_abs="0"/>
    </tripinfo>
    <tripinfo id="f_0_14.3" depart="16.00" departLane="C2C3_0" departPos="5.10" departSpeed="0.00" departDelay="1.00" arrival="137.00" arrivalLane="C4C5_0" arrivalPos="492.80" arrivalSpeed="12.98" duration="121.00" routeLength="1494.90" waitingTime="0.00" waitingCount="0" stopTime="0.00" timeLoss="13.02" rerouteNo="0" devices="tripinfo_f_0_14.3 emissions_f_0_14.3" vType="DEFAULT_VEHTYPE" speedFactor="1.00" vaporized="">
        <emissions CO_abs="3153.021684" CO2_abs="310291.555656" HC_abs="20.855204" PMx_abs="4.277172" NOx_abs="115.888181" fuel_abs="98969.217095" electricity_abs="0"/>
    </tripinfo>
    <tripinfo id="f_0_8.2" depart="17.00" departLane="G5G6_0" departPos="5.10" departSpeed="0.00" departDelay="0.00" arrival="137.00" arrivalLane="G7G8_0" arrivalPos="491.30" arrivalSpeed="12.97" duration="120.00" routeLength="1493.50" waitingTime="0.00" waitingCount="0" stopTime="0.00" timeLoss="14.53" rerouteNo="0" devices="tripinfo_f_0_8.2 emissions_f_0_8.2" vType="DEFAULT_VEHTYPE" speedFactor="1.02" vaporized="">
        <emissions CO_abs="3465.915302" CO2_abs="323337.075759" HC_abs="22.965051" PMx_abs="4.914446" NOx_abs="124.704440" fuel_abs="103129.753087" electricity_abs="0"/>
    </tripinfo>
    <tripinfo id="f_0_2.2" depart="6.00" departLane="C5C6_0" departPos="5.10" departSpeed="0.00" departDelay="1.00" arrival="138.00" arrivalLane="C7C8_0" arrivalPos="491.30" arrivalSpeed="11.83" duration="132.00" routeLength="1493.50" waitingTime="1.00" waitingCount="1" stopTime="0.00" timeLoss="16.73" rerouteNo="0" devices="tripinfo_f_0_2.2 emissions_f_0_2.2" vType="DEFAULT_VEHTYPE" speedFactor="0.94" vaporized="">
        <emissions CO_abs="3732.342496" CO2_abs="312966.924505" HC_abs="23.676688" PMx_abs="4.275314" NOx_abs="117.604658" fuel_abs="99822.921234" electricity_abs="0"/>
    </tripinfo>
    <tripinfo id="f_0_16.2" depart="8.00" departLane="D2D3_0" departPos="5.10" departSpeed="0.00" departDelay="0.00" arrival="138.00" arrivalLane="D4D5_0" arrivalPos="492.80" arrivalSpeed="12.25" duration="130.00" routeLength="1494.90" waitingTime="0.00" waitingCount="0" stopTime="0.00" timeLoss="13.93" rerouteNo="0" devices="tripinfo_f_0_16.2 emissions_f_0_16.2" vType="DEFAULT_VEHTYPE" speedFactor="0.93" vaporized="">
        <emissions CO_abs="3550.533985" CO2_abs="323537.897632" HC_abs="23.416853" PMx_abs="4.521589" NOx_abs="122.811318" fuel_abs="103194.288403" electricity_abs="0"/>
    </tripinfo>
    <tripinfo id="f_0_10.4" depart="19.00" departLane="H5H6_0" departPos="5.10" departSpeed="0.00" departDelay="2.00" arrival="138.00" arrivalLane="H7H8_0" arrivalPos="491.30" arrivalSpeed="13.77" duration="119.00" routeLength="1493.50" waitingTime="0.00" waitingCount="0" stopTime="0.00" timeLoss="19.19" rerouteNo="0" devices="tripinfo_f_0_10.4 emissions_f_0_10.4" vType="DEFAULT_VEHTYPE" speedFactor="1.08" vaporized="">
        <emissions CO_abs="3899.075761" CO2_abs="337466.452610" HC_abs="25.030336" PMx_abs="5.256394" NOx_abs="130.529822" fuel_abs="107636.380123" electricity_abs="0"/>
    </tripinfo>
    <tripinfo id="f_0_4.0" depart="3.00" departLane="D5D6_0" departPos="5.10" departSpeed="0.00" departDelay="0.00" arrival="139.00" arrivalLane="D7D8_0" arrivalPos="491.30" arrivalSpeed="10.96" duration="136.00" routeLength="1493.50" waitingTime="0.00" waitingCount="0" stopTime="0.00" timeLoss="10.37" rerouteNo="0" devices="tripinfo_f_0_4.0 emissions_f_0_4.0" vType="DEFAULT_VEHTYPE" speedFactor="0.86" vaporized="">
        <emissions CO_abs="3107.828405" CO2_abs="287048.771352" HC_abs="20.610954" PMx_abs="3.600623" NOx_abs="106.692821" fuel_abs="91556.301700" electricity_abs="0"/>
    </tripinfo>
    <tripinfo id="f_0_9.3" depart="12.00" departLane="G9G8_0" departPos="5.10" departSpeed="0.00" departDelay="1.00" arrival="139.00" arrivalLane="G7G6_0" arrivalPos="492.80" arrivalSpeed="16.24" duration="127.00" routeLength="1494.90" waitingTime="0.00" waitingCount="0" stopTime="0.00" timeLoss="34.79" rerouteNo="0" devices="tripinfo_f_0_9.3 emissions_f_0_9.3" vType="DEFAULT_VEHTYPE" speedFactor="1.18" vaporized="">
        <emissions CO_abs="4448.203744" CO2_abs="363469.062007" HC_abs="28.442826" PMx_abs="5.798309" NOx_abs="142.614477" fuel_abs="115930.027858" electricity_abs="0"/>
    </tripinfo>
    <tripinfo id="f_0_5.3" depart="14.00" departLane="D9D8_0" departPos="5.10" departSpeed="0.00" departDelay="2.00" arrival="139.00" arrivalLane="D7D6_0" arrivalPos="492.80" arrivalSpeed="13.22" duration="125.00" routeLength="1494.90" waitingTime="0.00" waitingCount="0" stopTime="0.00" timeLoss="11.59" rerouteNo="0" devices="tripinfo_f_0_5.3 emissions_f_0_5.3" vType="DEFAULT_VEHTYPE" speedFactor="0.96" vaporized="">
        <emissions CO_abs="3226.704020" CO2_abs="326505.819134" HC_abs="21.746733" PMx_abs="4.400877" NOx_abs="122.008182" fuel_abs="104140.906316" electricity_abs="0"/>
    </tripinfo>
    <tripinfo id="f_0_17.1" depart="7.00" departLane="D6D5_0" departPos="5.10" departSpeed="0.00" departDelay="0.00" arrival="140.00" arrivalLane="D4D3_0" arrivalPos="491.30" arrivalSpeed="11.94" duration="133.00" routeLength="1493.50" waitingTime="0.00" waitingCount="0" stopTime="0.00" timeLoss="8.89" rerouteNo="0" devices="tripinfo_f_0_17.1 emissions_f_0_17.1" vType="DEFAULT_VEHTYPE" speedFactor="0.87" vaporized="">
        <emissions CO_abs="2915.915648" CO2_abs="303518.490007" HC_abs="20.136821" PMx_abs="3.665655" NOx_abs="111.616309" fuel_abs="96809.382936" electricity_abs="0"/>
    </tripinfo>
    <tripinfo id="f_0_16.3" depart="11.00" departLane="D2D3_0" departPos="5.10" departSpeed="0.00" departDelay="1.00" arrival="140.00" arrivalLane="D4D5_0" arrivalPos="492.80" arrivalSpeed="13.56" duration="129.00" routeLength="1494.90" waitingTime="0.00" waitingCount="0" stopTime="0.00" timeLoss="19.89" rerouteNo="0" devices="tripinfo_f_0_16.3 emissions_f_0_16.3" vType="DEFAULT_VEHTYPE" speedFactor="0.99" vaporized="">
        <emissions CO_abs="4199.782220" CO2_abs="353103.482189" HC_abs="27.025554" PMx_abs="5.431875" NOx_abs="137.361370" fuel_abs="112624.024535" electricity_abs="0"/>
    </tripinfo>
    <tripinfo id="f_0_9.4" depart="15.00" departLane="G9G8_0" departPos="5.10" departSpeed="0.00" departDelay="2.00" arrival="140.00" arrivalLane="G7G6_0" arrivalPos="492.80" arrivalSpeed="14.15" duration="125.00" routeLength="1494.90" waitingTime="0.00" waitingCount="0" stopTime="0.00" timeLoss="25.85" rerouteNo="0" devices="tripinfo_f_0_9.4 emissions_f_0_9.4" vType="DEFAULT_VEHTYPE" speedFactor="1.09" vaporized="">
        <emissions CO_abs="4175.775659" CO2_abs="341284.445193" HC_abs="26.595500" PMx_abs="5.367593" NOx_abs="133.166324" fuel_abs="108854.219177" electricity_abs="0"/>
    </tripinfo>
    <tripinfo id="f_0_5.4" depart="17.00" departLane="D9D8_0" departPos="5.10" departSpeed="0.00" departDelay="0.00" arrival="140.00" arrivalLane="D7D6_0" arrivalPos="492.80" arrivalSpeed="14.43" duration="123.00" routeLength="1494.90" waitingTime="0.00" waitingCount="0" stopTime="0.00" timeLoss="28.53" rerouteNo="0" devices="tripinfo_f_0_5.4 emissions_f_0_5.4" vType="DEFAULT_VEHTYPE" speedFactor="1.14" vaporized="">
        <emissions CO_abs="4401.922190" CO2_abs="367530.152898" HC_abs="28.405831" PMx_abs="5.949556" NOx_abs="144.653942" fuel_abs="117225.184137" electricity_abs="0"/>
    </tripinfo>
    <tripinfo id="f_0_4.1" depart="6.00" departLane="D5D6_0" departPos="5.10" departSpeed="0.00" departDelay="2.00" arrival="141.00" arrivalLane="D7D8_0" arrivalPos="491.30" arrivalSpeed="11.40" duration="135.00" routeLength="1493.50" waitingTime="0.00" waitingCount="0" stopTime="0.00" timeLoss="12.32" rerouteNo="0" devices="tripinfo_f_0_4.1 emissions_f_0_4.1" vType="DEFAULT_VEHTYPE" speedFactor="0.88" vaporized="">
        <emissions CO_abs="3790.190230" CO2_abs="321862.173903" HC_abs="24.605156" PMx_abs="4.608768" NOx_abs="123.680593" fuel_abs="102659.805938" electricity_abs="0"/>
    </tripinfo>
    <tripinfo id="f_0_16.4" depart="14.00" departLane="D2D3_0" departPos="5.10" departSpeed="0.00" departDelay="2.00" arrival="141.00" arrivalLane="D4D5_0" arrivalPos="492.80" arrivalSpeed="13.17" duration="127.00" routeLength="1494.90" waitingTime="0.00" waitingCount="0" stopTime="0.00" timeLoss="23.07" rerouteNo="0" devices="tripinfo_f_0_16.4 emissions_f_0_16.4" vType="DEFAULT_VEHTYPE" speedFactor="1.04" vaporized="">
        <emissions CO_abs="4535.786847" CO2_abs="366753.818520" HC_abs="29.066526" PMx_abs="5.905914" NOx_abs="144.708788" fuel_abs="116977.668764" electricity_abs="0"/>
    </tripinfo>
    <tripinfo id="f_0_9.5" depart="18.00" departLane="G9G8_0" departPos="5.10" departSpeed="0.00" departDelay="1.00" arrival="142.00" arrivalLane="G7G6_0" arrivalPos="492.80" arrivalSpeed="12.71" duration="124.00" routeLength="1494.90" waitingTime="0.00" waitingCount="0" stopTime="0.00" timeLoss="12.77" rerouteNo="0" devices="tripinfo_f_0_9.5 emissions_f_0_9.5" vType="DEFAULT_VEHTYPE" speedFactor="0.97" vaporized="">
        <emissions CO_abs="3220.086287" CO2_abs="310722.727999" HC_abs="21.452103" PMx_abs="4.401305" NOx_abs="117.733388" fuel_abs="99106.646010" electricity_abs="0"/>
    </tripinfo>
    <tripinfo id="f_0_4.2" depart="9.00" departLane="D5D6_0" departPos="5.10" departSpeed="0.00" departDelay="4.00" arrival="143.00" arrivalLane="D7D8_0" arrivalPos="491.30" arrivalSpeed="14.61" duration="134.00" routeLength="1493.50" waitingTime="0.00" waitingCount="0" stopTime="0.00" timeLoss="40.54" rerouteNo="0" devices="tripinfo_f_0_4.2 emissions_f_0_4.2" vType="DEFAULT_VEHTYPE" speedFactor="1.16" vaporized="">
        <emissions CO_abs="4660.450560" CO2_abs="378809.905391" HC_abs="29.936200" PMx_abs="5.874114" NOx_abs="148.720141" fuel_abs="120823.209254" electricity_abs="0"/>
    </tripinfo>
    <tripinfo id="f_0_9.6" depart="21.00" departLane="G9G8_0" departPos="5.10" departSpeed="0.00" departDelay="1.00" arrival="144.00" arrivalLane="G7G6_0" arrivalPos="492.80" arrivalSpeed="13.61" duration="123.00" routeLength="1494.90" waitingTime="0.00" waitingCount="0" stopTime="0.00" timeLoss="17.08" rerouteNo="0" devices="tripinfo_f_0_9.6 emissions_f_0_9.6" vType="DEFAULT_VEHTYPE" speedFactor="1.02" vaporized="">
        <emissions CO_abs="3814.550300" CO2_abs="330265.962197" HC_abs="24.715921" PMx_abs="5.186425" NOx_abs="128.793355" fuel_abs="105339.708283" electricity_abs="0"/>
    </tripinfo>
    <tripinfo id="f_0_4.3" depart="12.00" departLane="D5D6_0" departPos="5.10" departSpeed="0.00" departDelay="4.00" arrival="145.00" arrivalLane="D7D8_0" arrivalPos="491.30" arrivalSpeed="12.31" duration="133.00" routeLength="1493.50" waitingTime="0.00" waitingCount="0" stopTime="0.00" timeLoss="15.05" rerouteNo="0" devices="tripinfo_f_0_4.3 emissions_f_0_4.3" vType="DEFAULT_VEHTYPE" speedFactor="0.92" vaporized="">
        <emissions CO_abs="4477.338334" CO2_abs="356777.558780" HC_abs="28.502887" PMx_abs="5.634911" NOx_abs="140.609417" fuel_abs="113795.832135" electricity_abs="0"/>
    </tripinfo>
    <tripinfo id="f_0_4.4" depart="15.00" departLane="D5D6_0" departPos="5.10" departSpeed="0.00" departDelay="5.00" arrival="146.00" arrivalLane="D7D8_0" arrivalPos="491.30" arrivalSpeed="13.35" duration="131.00" routeLength="1493.50" waitingTime="0.00" waitingCount="0" stopTime="0.00" timeLoss="24.01" rerouteNo="0" devices="tripinfo_f_0_4.4 emissions_f_0_4.4" vType="DEFAULT_VEHTYPE" speedFactor="1.01" vaporized="">
        <emissions CO_abs="5077.754790" CO2_abs="382784.965018" HC_abs="31.876510" PMx_abs="6.480606" NOx_abs="153.804531" fuel_abs="122090.670079" electricity_abs="0"/>
    </tripinfo>
    <tripinfo id="f_0_2.3" depart="17.00" departLane="C5C6_0" departPos="5.10" departSpeed="0.00" departDelay="0.00" arrival="146.00" arrivalLane="C7C8_0" arrivalPos="491.30" arrivalSpeed="12.27" duration="129.00" routeLength="1493.50" waitingTime="0.00" waitingCount="0" stopTime="0.00" timeLoss="8.72" rerouteNo="0" devices="tripinfo_f_0_2.3 emissions_f_0_2.3" vType="DEFAULT_VEHTYPE" speedFactor="0.90" vaporized="">
        <emissions CO_abs="2820.199977" CO2_abs="305431.407678" HC_abs="19.414124" PMx_abs="3.690318" NOx_abs="111.443410" fuel_abs="97419.492776" electricity_abs="0"/>
    </tripinfo>
    <tripinfo id="f_0_4.5" depart="18.00" departLane="D5D6_0" departPos="5.10" departSpeed="0.00" departDelay="3.00" arrival="148.00" arrivalLane="D7D8_0" arrivalPos="491.30" arrivalSpeed="13.37" duration="130.00" routeLength="1493.50" waitingTime="0.00" waitingCount="0" stopTime="0.00" timeLoss="23.97" rerouteNo="0" devices="tripinfo_f_0_4.5 emissions_f_0_4.5" vType="DEFAULT_VEHTYPE" speedFactor="1.02" vaporized="">
        <emissions CO_abs="5140.025761" CO2_abs="394336.437713" HC_abs="32.128041" PMx_abs="6.559651" NOx_abs="157.138303" fuel_abs="125775.117071" electricity_abs="0"/>
    </tripinfo>
    <tripinfo id="f_0_11.0" depart="7.00" departLane="H9H8_0" departPos="5.10" departSpeed="0.00" departDelay="0.00" arrival="149.00" arrivalLane="H7H6_0" arrivalPos="492.80" arrivalSpeed="11.44" duration="142.00" routeLength="1494.90" waitingTime="0.00" waitingCount="0" stopTime="0.00" timeLoss="10.80" rerouteNo="0" devices="tripinfo_f_0_11.0 emissions_f_0_11.0" vType="DEFAULT_VEHTYPE" speedFactor="0.83" vaporized="">
        <emissions CO_abs="3587.848918" CO2_abs="312243.143759" HC_abs="23.401585" PMx_abs="3.960904" NOx_abs="116.760243" fuel_abs="99592.291213" electricity_abs="0"/>
    </tripinfo>
    <tripinfo id="f_0_11.1" depart="11.00" departLane="H9H8_0" departPos="5.10" departSpeed="0.00" departDelay="0.00" arrival="150.00" arrivalLane="H7H6_0" arrivalPos="492.80" arrivalSpeed="12.22" duration="139.00" routeLength="1494.90" waitingTime="0.00" waitingCount="0" stopTime="0.00" timeLoss="41.36" rerouteNo="0" devices="tripinfo_f_0_11.1 emissions_f_0_11.1" vType="DEFAULT_VEHTYPE" speedFactor="1.10" vaporized="">
        <emissions CO_abs="4223.499132" CO2_abs="339620.170934" HC_abs="26.972722" PMx_abs="4.960087" NOx_abs="131.391679" fuel_abs="108323.845351" electricity_abs="0"/>
    </tripinfo>
    <tripinfo id="f_0_11.2" depart="14.00" departLane="H9H8_0" departPos="5.10" departSpeed="0.00" departDelay="1.00" arrival="152.00" arrivalLane="H7H6_0" arrivalPos="492.80" arrivalSpeed="11.98" duration="138.00" routeLength="1494.90" waitingTime="0.00" waitingCount="0" stopTime="0.00" timeLoss="18.24" rerouteNo="0" devices="tripinfo_f_0_11.2 emissions_f_0_11.2" vType="DEFAULT_VEHTYPE" speedFactor="0.90" vaporized="">