<?xml version="1.0" encoding="UTF-8"?>

<!-- generated on 2024-08-22 13:37:22 by Eclipse SUMO sumo Version 1.17.0
<configuration xmlns:xsi="http://www.w3.org/2001/XMLSchema-instance" xsi:noNamespaceSchemaLocation="http://sumo.dlr.de/xsd/sumoConfiguration.xsd">

    <input>
        <net-file value="single_neat.net.xml"/>
        <route-files value="single_4.rou.xml"/>
    </input>

    <output>
        <tripinfo-output value="emissions_test\z14_data_All_stepThreshold_3000_gen_80_4emissionssingle.xml"/>
    </output>

    <processing>
        <time-to-teleport value="-1"/>
    </processing>

    <report>
        <no-warnings value="true"/>
    </report>

    <emissions>
        <device.emissions.probability value="1.0"/>
    </emissions>

    <traci_server>
        <remote-port value="58254"/>
    </traci_server>

</configuration>
-->

<tripinfos xmlns:xsi="http://www.w3.org/2001/XMLSchema-instance" xsi:noNamespaceSchemaLocation="http://sumo.dlr.de/xsd/tripinfo_file.xsd">
    <tripinfo id="f_0_0.0" depart="2.00" departLane="A2B2_0" departPos="5.10" departSpeed="0.00" departDelay="0.00" arrival="133.00" arrivalLane="C2D2_0" arrivalPos="492.80" arrivalSpeed="13.50" duration="131.00" routeLength="1495.00" waitingTime="16.00" waitingCount="1" stopTime="0.00" timeLoss="29.32" rerouteNo="0" devices="tripinfo_f_0_0.0 emissions_f_0_0.0" vType="DEFAULT_VEHTYPE" speedFactor="1.06" vaporized="">
        <emissions CO_abs="5993.806401" CO2_abs="369133.638710" HC_abs="35.095766" PMx_abs="5.753509" NOx_abs="142.033753" fuel_abs="117737.893930" electricity_abs="0"/>
    </tripinfo>
    <tripinfo id="f_0_0.1" depart="5.00" departLane="A2B2_0" departPos="5.10" departSpeed="0.00" departDelay="0.00" arrival="140.00" arrivalLane="C2D2_0" arrivalPos="492.80" arrivalSpeed="12.45" duration="135.00" routeLength="1495.00" waitingTime="6.00" waitingCount="1" stopTime="0.00" timeLoss="19.70" rerouteNo="0" devices="tripinfo_f_0_0.1 emissions_f_0_0.1" vType="DEFAULT_VEHTYPE" speedFactor="0.94" vaporized="">
        <emissions CO_abs="4274.370642" CO2_abs="329826.050015" HC_abs="26.557332" PMx_abs="4.472891" NOx_abs="123.523107" fuel_abs="105200.534408" electricity_abs="0"/>
    </tripinfo>
    <tripinfo id="f_0_0.2" depart="8.00" departLane="A2B2_0" departPos="5.10" departSpeed="0.00" departDelay="1.00" arrival="142.00" arrivalLane="C2D2_0" arrivalPos="492.80" arrivalSpeed="13.07" duration="134.00" routeLength="1495.00" waitingTime="6.00" waitingCount="1" stopTime="0.00" timeLoss="26.59" rerouteNo="0" devices="tripinfo_f_0_0.2 emissions_f_0_0.2" vType="DEFAULT_VEHTYPE" speedFactor="1.01" vaporized="">
        <emissions CO_abs="5254.576150" CO2_abs="363113.062759" HC_abs="31.951850" PMx_abs="5.735206" NOx_abs="142.104257" fuel_abs="115817.043477" electricity_abs="0"/>
    </tripinfo>
    <tripinfo id="f_0_0.3" depart="11.00" departLane="A2B2_0" departPos="5.10" departSpeed="0.00" departDelay="1.00" arrival="143.00" arrivalLane="C2D2_0" arrivalPos="492.80" arrivalSpeed="14.92" duration="132.00" routeLength="1495.00" waitingTime="5.00" waitingCount="1" stopTime="0.00" timeLoss="32.25" rerouteNo="0" devices="tripinfo_f_0_0.3 emissions_f_0_0.3" vType="DEFAULT_VEHTYPE" speedFactor="1.08" vaporized="">
        <emissions CO_abs="5652.780623" CO2_abs="387011.705398" HC_abs="34.316691" PMx_abs="6.375699" NOx_abs="153.119757" fuel_abs="123439.378272" electricity_abs="0"/>
    </tripinfo>
    <tripinfo id="f_0_0.4" depart="16.00" departLane="A2B2_0" departPos="5.10" departSpeed="0.00" departDelay="0.00" arrival="145.00" arrivalLane="C2D2_0" arrivalPos="492.80" arrivalSpeed="13.68" duration="129.00" routeLength="1495.00" waitingTime="4.00" waitingCount="1" stopTime="0.00" timeLoss="24.07" rerouteNo="0" devices="tripinfo_f_0_0.4 emissions_f_0_0.4" vType="DEFAULT_VEHTYPE" speedFactor="1.03" vaporized="">
        <emissions CO_abs="4798.084722" CO2_abs="356335.413642" HC_abs="29.392925" PMx_abs="5.376458" NOx_abs="136.654854" fuel_abs="113655.351586" electricity_abs="0"/>
    </tripinfo>
    <tripinfo id="f_0_1.0" depart="24.00" departLane="C4C3_0" departPos="5.10" departSpeed="0.00" departDelay="0.00" arrival="148.00" arrivalLane="C2C1_0" arrivalPos="492.80" arrivalSpeed="13.66" duration="124.00" routeLength="1495.00" waitingTime="7.00" waitingCount="1" stopTime="0.00" timeLoss="21.00" rerouteNo="0" devices="tripinfo_f_0_1.0 emissions_f_0_1.0" vType="DEFAULT_VEHTYPE" speedFactor="1.05" vaporized="">
        <emissions CO_abs="4646.902522" CO2_abs="347705.499515" HC_abs="28.494561" PMx_abs="5.242188" NOx_abs="132.654123" fuel_abs="110902.804105" electricity_abs="0"/>
    </tripinfo>
    <tripinfo id="f_0_1.1" depart="27.00" departLane="C4C3_0" departPos="5.10" departSpeed="0.00" departDelay="1.00" arrival="154.00" arrivalLane="C2C1_0" arrivalPos="492.80" arrivalSpeed="12.57" duration="127.00" routeLength="1495.00" waitingTime="0.00" waitingCount="0" stopTime="0.00" timeLoss="11.92" rerouteNo="0" devices="tripinfo_f_0_1.1 emissions_f_0_1.1" vType="DEFAULT_VEHTYPE" speedFactor="0.94" vaporized="">
        <emissions CO_abs="3115.470578" CO2_abs="305287.437963" HC_abs="20.799557" PMx_abs="4.117754" NOx_abs="114.350165" fuel_abs="97373.239058" electricity_abs="0"/>
    </tripinfo>
    <tripinfo id="f_0_1.2" depart="30.00" departLane="C4C3_0" departPos="5.10" departSpeed="0.00" departDelay="3.00" arrival="166.00" arrivalLane="C2C1_0" arrivalPos="492.80" arrivalSpeed="10.64" duration="136.00" routeLength="1495.00" waitingTime="0.00" waitingCount="0" stopTime="0.00" timeLoss="10.03" rerouteNo="0" devices="tripinfo_f_0_1.2 emissions_f_0_1.2" vType="DEFAULT_VEHTYPE" speedFactor="0.86" vaporized="">
        <emissions CO_abs="3139.859729" CO2_abs="296421.554486" HC_abs="20.915927" PMx_abs="3.701263" NOx_abs="109.948301" fuel_abs="94545.802344" electricity_abs="0"/>
    </tripinfo>
    <tripinfo id="f_0_1.3" depart="33.00" departLane="C4C3_0" departPos="5.10" departSpeed="0.00" departDelay="4.00" arrival="168.00" arrivalLane="C2C1_0" arrivalPos="492.80" arrivalSpeed="13.51" duration="135.00" routeLength="1495.00" waitingTime="0.00" waitingCount="0" stopTime="0.00" timeLoss="29.39" rerouteNo="0" devices="tripinfo_f_0_1.3 emissions_f_0_1.3" vType="DEFAULT_VEHTYPE" speedFactor="1.03" vaporized="">
        <emissions CO_abs="3900.605562" CO2_abs="333148.072655" HC_abs="25.313985" PMx_abs="4.813642" NOx_abs="128.177866" fuel_abs="106259.458356" electricity_abs="0"/>
    </tripinfo>
    <tripinfo id="f_0_1.4" depart="36.00" departLane="C4C3_0" departPos="5.10" departSpeed="0.00" departDelay="5.00" arrival="169.00" arrivalLane="C2C1_0" arrivalPos="492.80" arrivalSpeed="13.41" duration="133.00" routeLength="1495.00" waitingTime="0.00" waitingCount="0" stopTime="0.00" timeLoss="30.14" rerouteNo="0" devices="tripinfo_f_0_1.4 emissions_f_0_1.4" vType="DEFAULT_VEHTYPE" speedFactor="1.05" vaporized="">
        <emissions CO_abs="4556.605574" CO2_abs="370713.049837" HC_abs="29.188600" PMx_abs="5.746602" NOx_abs="145.111678" fuel_abs="118240.704043" electricity_abs="0"/>
    </tripinfo>
    <tripinfo id="f_0_1.5" depart="42.00" departLane="C4C3_0" departPos="5.10" departSpeed="0.00" departDelay="0.00" arrival="171.00" arrivalLane="C2C1_0" arrivalPos="492.80" arrivalSpeed="13.29" duration="129.00" routeLength="1495.00" waitingTime="0.00" waitingCount="0" stopTime="0.00" timeLoss="22.95" rerouteNo="0" devices="tripinfo_f_0_1.5 emissions_f_0_1.5" vType="DEFAULT_VEHTYPE" speedFactor="1.02" vaporized="">
        <emissions CO_abs="4153.192423" CO2_abs="358875.745978" HC_abs="26.996153" PMx_abs="5.452039" NOx_abs="139.364800" fuel_abs="114465.105427" electricity_abs="0"/>
    </tripinfo>
    <tripinfo id="f_0_2.0" depart="40.00" departLane="E2D2_0" departPos="5.10" departSpeed="0.00" departDelay="0.00" arrival="177.00" arrivalLane="C2B2_0" arrivalPos="492.80" arrivalSpeed="12.67" duration="137.00" routeLength="1495.00" waitingTime="7.00" waitingCount="1" stopTime="0.00" timeLoss="21.84" rerouteNo="0" devices="tripinfo_f_0_2.0 emissions_f_0_2.0" vType="DEFAULT_VEHTYPE" speedFactor="0.94" vaporized="">
        <emissions CO_abs="4629.698242" CO2_abs="332229.346612" HC_abs="28.179666" PMx_abs="4.614709" NOx_abs="125.290940" fuel_abs="105967.145357" electricity_abs="0"/>
    </tripinfo>
    <tripinfo id="f_0_2.1" depart="43.00" departLane="E2D2_0" departPos="5.10" departSpeed="0.00" departDelay="1.00" arrival="179.00" arrivalLane="C2B2_0" arrivalPos="492.80" arrivalSpeed="12.98" duration="136.00" routeLength="1495.00" waitingTime="6.00" waitingCount="1" stopTime="0.00" timeLoss="28.93" rerouteNo="0" devices="tripinfo_f_0_2.1 emissions_f_0_2.1" vType="DEFAULT_VEHTYPE" speedFactor="1.01" vaporized="">
        <emissions CO_abs="5310.315278" CO2_abs="362094.848076" HC_abs="32.218740" PMx_abs="5.656015" NOx_abs="141.255211" fuel_abs="115492.399642" electricity_abs="0"/>
    </tripinfo>
    <tripinfo id="f_0_0.5" depart="20.00" departLane="A2B2_0" departPos="5.10" departSpeed="0.00" departDelay="0.00" arrival="182.00" arrivalLane="C2D2_0" arrivalPos="492.80" arrivalSpeed="10.38" duration="162.00" routeLength="1495.00" waitingTime="17.00" waitingCount="1" stopTime="0.00" timeLoss="32.32" rerouteNo="0" devices="tripinfo_f_0_0.5 emissions_f_0_0.5" vType="DEFAULT_VEHTYPE" speedFactor="0.83" vaporized="">
        <emissions CO_abs="7025.652135" CO2_abs="373801.396788" HC_abs="40.490357" PMx_abs="5.510783" NOx_abs="145.019639" fuel_abs="119227.597467" electricity_abs="0"/>
    </tripinfo>
    <tripinfo id="f_0_0.6" depart="25.00" departLane="A2B2_0" departPos="5.10" departSpeed="0.00" departDelay="0.00" arrival="184.00" arrivalLane="C2D2_0" arrivalPos="492.80" arrivalSpeed="12.02" duration="159.00" routeLength="1495.00" waitingTime="16.00" waitingCount="1" stopTime="0.00" timeLoss="37.11" rerouteNo="0" devices="tripinfo_f_0_0.6 emissions_f_0_0.6" vType="DEFAULT_VEHTYPE" speedFactor="0.89" vaporized="">
        <emissions CO_abs="7389.343169" CO2_abs="388249.215332" HC_abs="42.495283" PMx_abs="6.169481" NOx_abs="153.528673" fuel_abs="123835.416743" electricity_abs="0"/>
    </tripinfo>
    <tripinfo id="f_0_2.2" depart="46.00" departLane="E2D2_0" departPos="5.10" departSpeed="0.00" departDelay="2.00" arrival="184.00" arrivalLane="C2B2_0" arrivalPos="492.80" arrivalSpeed="11.90" duration="138.00" routeLength="1495.00" waitingTime="1.00" waitingCount="1" stopTime="0.00" timeLoss="16.08" rerouteNo="0" devices="tripinfo_f_0_2.2 emissions_f_0_2.2" vType="DEFAULT_VEHTYPE" speedFactor="0.89" vaporized="">
        <emissions CO_abs="3683.549351" CO2_abs="313607.741405" HC_abs="23.613328" PMx_abs="4.013001" NOx_abs="116.593538" fuel_abs="100027.592598" electricity_abs="0"/>
    </tripinfo>
    <tripinfo id="f_0_2.3" depart="49.00" departLane="E2D2_0" departPos="5.10" departSpeed="0.00" departDelay="4.00" arrival="185.00" arrivalLane="C2B2_0" arrivalPos="492.80" arrivalSpeed="12.19" duration="136.00" routeLength="1495.00" waitingTime="1.00" waitingCount="1" stopTime="0.00" timeLoss="18.48" rerouteNo="0" devices="tripinfo_f_0_2.3 emissions_f_0_2.3" vType="DEFAULT_VEHTYPE" speedFactor="0.92" vaporized="">
        <emissions CO_abs="4422.984134" CO2_abs="341152.035181" HC_abs="27.723177" PMx_abs="5.005722" NOx_abs="131.348464" fuel_abs="108812.565843" electricity_abs="0"/>
    </tripinfo>
    <tripinfo id="f_0_0.7" depart="29.00" departLane="A2B2_0" departPos="5.10" departSpeed="0.00" departDelay="0.00" arrival="186.00" arrivalLane="C2D2_0" arrivalPos="492.80" arrivalSpeed="14.90" duration="157.00" routeLength="1495.00" waitingTime="15.00" waitingCount="1" stopTime="0.00" timeLoss="57.54" rerouteNo="0" devices="tripinfo_f_0_0.7 emissions_f_0_0.7" vType="DEFAULT_VEHTYPE" speedFactor="1.09" vaporized="">
        <emissions CO_abs="8243.218433" CO2_abs="427164.142188" HC_abs="47.376069" PMx_abs="7.392203" NOx_abs="173.250647" fuel_abs="136246.990823" electricity_abs="0"/>
    </tripinfo>
    <tripinfo id="f_0_0.8" depart="32.00" departLane="A2B2_0" departPos="5.10" departSpeed="0.00" departDelay="0.00" arrival="187.00" arrivalLane="C2D2_0" arrivalPos="492.80" arrivalSpeed="15.21" duration="155.00" routeLength="1495.00" waitingTime="15.00" waitingCount="1" stopTime="0.00" timeLoss="59.01" rerouteNo="0" devices="tripinfo_f_0_0.8 emissions_f_0_0.8" vType="DEFAULT_VEHTYPE" speedFactor="1.12" vaporized="">
        <emissions CO_abs="8584.305048" CO2_abs="447598.144703" HC_abs="49.346768" PMx_abs="8.022411" NOx_abs="182.902740" fuel_abs="142764.229722" electricity_abs="0"/>
    </tripinfo>
    <tripinfo id="f_0_2.4" depart="52.00" departLane="E2D2_0" departPos="5.10" departSpeed="0.00" departDelay="2.00" arrival="187.00" arrivalLane="C2B2_0" arrivalPos="492.80" arrivalSpeed="14.47" duration="135.00" routeLength="1495.00" waitingTime="0.00" waitingCount="0" stopTime="0.00" timeLoss="39.28" rerouteNo="0" devices="tripinfo_f_0_2.4 emissions_f_0_2.4" vType="DEFAULT_VEHTYPE" speedFactor="1.13" vaporized="">
        <emissions CO_abs="4991.123437" CO2_abs="370059.489348" HC_abs="31.023274" PMx_abs="5.924938" NOx_abs="146.075476" fuel_abs="118032.298656" electricity_abs="0"/>
    </tripinfo>
    <tripinfo id="f_0_3.0" depart="80.00" departLane="C0C1_0" departPos="5.10" departSpeed="0.00" departDelay="0.00" arrival="187.00" arrivalLane="C2C3_0" arrivalPos="492.80" arrivalSpeed="14.82" duration="107.00" routeLength="1495.00" waitingTime="0.00" waitingCount="0" stopTime="0.00" timeLoss="7.49" rerouteNo="0" devices="tripinfo_f_0_3.0 emissions_f_0_3.0" vType="DEFAULT_VEHTYPE" speedFactor="1.09" vaporized="">
        <emissions CO_abs="2123.607923" CO2_abs="282100.959294" HC_abs="15.100721" PMx_abs="3.599299" NOx_abs="100.942914" fuel_abs="89977.580768" electricity_abs="0"/>
    </tripinfo>
    <tripinfo id="f_0_0.9" depart="35.00" departLane="A2B2_0" departPos="5.10" departSpeed="0.00" departDelay="2.00" arrival="189.00" arrivalLane="C2D2_0" arrivalPos="492.80" arrivalSpeed="13.30" duration="154.00" routeLength="1495.00" waitingTime="15.00" waitingCount="1" stopTime="0.00" timeLoss="45.10" rerouteNo="0" devices="tripinfo_f_0_0.9 emissions_f_0_0.9" vType="DEFAULT_VEHTYPE" speedFactor="0.99" vaporized="">
        <emissions CO_abs="8511.480534" CO2_abs="445300.659108" HC_abs="49.094226" PMx_abs="8.093507" NOx_abs="183.231620" fuel_abs="142031.260860" electricity_abs="0"/>
    </tripinfo>
    <tripinfo id="f_0_1.6" depart="45.00" departLane="C4C3_0" departPos="5.10" departSpeed="0.00" departDelay="0.00" arrival="194.00" arrivalLane="C2C1_0" arrivalPos="492.80" arrivalSpeed="11.11" duration="149.00" routeLength="1495.00" waitingTime="11.00" waitingCount="1" stopTime="0.00" timeLoss="25.37" rerouteNo="0" devices="tripinfo_f_0_1.6 emissions_f_0_1.6" vType="DEFAULT_VEHTYPE" speedFactor="0.87" vaporized="">
        <emissions CO_abs="5823.387367" CO2_abs="353639.219688" HC_abs="34.574190" PMx_abs="5.244582" NOx_abs="137.124116" fuel_abs="112796.122780" electricity_abs="0"/>
    </tripinfo>
    <tripinfo id="f_0_1.7" depart="51.00" departLane="C4C3_0" departPos="5.10" departSpeed="0.00" departDelay="0.00" arrival="196.00" arrivalLane="C2C1_0" arrivalPos="492.80" arrivalSpeed="12.72" duration="145.00" routeLength="1495.00" waitingTime="9.00" waitingCount="1" stopTime="0.00" timeLoss="28.80" rerouteNo="0" devices="tripinfo_f_0_1.7 emissions_f_0_1.7" vType="DEFAULT_VEHTYPE" speedFactor="0.93" vaporized="">
        <emissions CO_abs="5816.068812" CO2_abs="367344.616646" HC_abs="34.748825" PMx_abs="5.622377" NOx_abs="143.034950" fuel_abs="117167.246061" electricity_abs="0"/>
    </tripinfo>
    <tripinfo id="f_0_1.8" depart="56.00" departLane="C4C3_0" departPos="5.10" departSpeed="0.00" departDelay="0.00" arrival="197.00" arrivalLane="C2C1_0" arrivalPos="492.80" arrivalSpeed="14.57" duration="141.00" routeLength="1495.00" waitingTime="9.00" waitingCount="1" stopTime="0.00" timeLoss="49.62" rerouteNo="0" devices="tripinfo_f_0_1.8 emissions_f_0_1.8" vType="DEFAULT_VEHTYPE" speedFactor="1.18" vaporized="">
        <emissions CO_abs="6369.504471" CO2_abs="390493.391116" HC_abs="37.793321" PMx_abs="6.529496" NOx_abs="155.809410" fuel_abs="124550.166971" electricity_abs="0"/>
    </tripinfo>
    <tripinfo id="f_0_1.9" depart="59.00" departLane="C4C3_0" departPos="5.10" departSpeed="0.00" departDelay="1.00" arrival="199.00" arrivalLane="C2C1_0" arrivalPos="492.80" arrivalSpeed="15.52" duration="140.00" routeLength="1495.00" waitingTime="9.00" waitingCount="1" stopTime="0.00" timeLoss="46.28" rerouteNo="0" devices="tripinfo_f_0_1.9 emissions_f_0_1.9" vType="DEFAULT_VEHTYPE" speedFactor="1.15" vaporized="">
        <emissions CO_abs="6920.090804" CO2_abs="416296.194192" HC_abs="41.084619" PMx_abs="7.282911" NOx_abs="168.452716" fuel_abs="132779.832754" electricity_abs="0"/>
    </tripinfo>
    <tripinfo id="f_0_1.10" depart="62.00" departLane="C4C3_0" departPos="5.10" departSpeed="0.00" departDelay="2.00" arrival="201.00" arrivalLane="C2C1_0" arrivalPos="492.80" arrivalSpeed="16.11" duration="139.00" routeLength="1495.00" waitingTime="9.00" waitingCount="1" stopTime="0.00" timeLoss="46.40" rerouteNo="0" devices="tripinfo_f_0_1.10 emissions_f_0_1.10" vType="DEFAULT_VEHTYPE" speedFactor="1.17" vaporized="">
        <emissions CO_abs="7070.466166" CO2_abs="434033.797847" HC_abs="42.175632" PMx_abs="7.622937" NOx_abs="175.610057" fuel_abs="138437.233314" electricity_abs="0"/>
    </tripinfo>
    <tripinfo id="f_0_1.11" depart="69.00" departLane="C4C3_0" departPos="5.10" departSpeed="0.00" departDelay="0.00" arrival="203.00" arrivalLane="C2C1_0" arrivalPos="492.80" arrivalSpeed="15.56" duration="134.00" routeLength="1495.00" waitingTime="9.00" waitingCount="2" stopTime="0.00" timeLoss="41.84" rerouteNo="0" devices="tripinfo_f_0_1.11 emissions_f_0_1.11" vType="DEFAULT_VEHTYPE" speedFactor="1.18" vaporized="">
        <emissions CO_abs="7287.122390" CO2_abs="437167.516608" HC_abs="42.632113" PMx_abs="7.528452" NOx_abs="174.002865" fuel_abs="139437.016439" electricity_abs="0"/>
    </tripinfo>
    <tripinfo id="f_0_2.5" depart="65.00" departLane="E2D2_0" departPos="5.10" departSpeed="0.00" departDelay="0.00" arrival="204.00" arrivalLane="C2B2_0" arrivalPos="492.80" arrivalSpeed="13.04" duration="139.00" routeLength="1495.00" waitingTime="16.00" waitingCount="1" stopTime="0.00" timeLoss="33.18" rerouteNo="0" devices="tripinfo_f_0_2.5 emissions_f_0_2.5" vType="DEFAULT_VEHTYPE" speedFactor="1.02" vaporized="">
        <emissions CO_abs="6186.294782" CO2_abs="365127.804404" HC_abs="35.872812" PMx_abs="5.589323" NOx_abs="140.718794" fuel_abs="116460.442589" electricity_abs="0"/>
    </tripinfo>
    <tripinfo id="f_0_0.10" depart="38.00" departLane="A2B2_0" departPos="5.10" departSpeed="0.00" departDelay="4.00" arrival="208.00" arrivalLane="C2D2_0" arrivalPos="492.80" arrivalSpeed="12.77" duration="170.00" routeLength="1495.00" waitingTime="30.00" waitingCount="2" stopTime="0.00" timeLoss="53.03" rerouteNo="0" devices="tripinfo_f_0_0.10 emissions_f_0_0.10" vType="DEFAULT_VEHTYPE" speedFactor="0.93" vaporized="">
        <emissions CO_abs="9617.855587" CO2_abs="423856.907758" HC_abs="53.171094" PMx_abs="6.896237" NOx_abs="167.634047" fuel_abs="135193.621596" electricity_abs="0"/>
    </tripinfo>
    <tripinfo id="f_0_2.6" depart="68.00" departLane="E2D2_0" departPos="5.10" departSpeed="0.00" departDelay="1.00" arrival="208.00" arrivalLane="C2B2_0" arrivalPos="492.80" arrivalSpeed="12.91" duration="140.00" routeLength="1495.00" waitingTime="13.00" waitingCount="1" stopTime="0.00" timeLoss="28.82" rerouteNo="0" devices="tripinfo_f_0_2.6 emissions_f_0_2.6" vType="DEFAULT_VEHTYPE" speedFactor="0.97" vaporized="">
        <emissions CO_abs="5765.533828" CO2_abs="361071.723387" HC_abs="33.849050" PMx_abs="5.313645" NOx_abs="137.516158" fuel_abs="115166.780436" electricity_abs="0"/>
    </tripinfo>
    <tripinfo id="f_0_2.7" depart="79.00" departLane="E2D2_0" departPos="5.10" departSpeed="0.00" departDelay="0.00" arrival="210.00" arrivalLane="C2B2_0" arrivalPos="492.80" arrivalSpeed="14.24" duration="131.00" routeLength="1495.00" waitingTime="10.00" waitingCount="1" stopTime="0.00" timeLoss="26.37" rerouteNo="0" devices="tripinfo_f_0_2.7 emissions_f_0_2.7" vType="DEFAULT_VEHTYPE" speedFactor="1.04" vaporized="">
        <emissions CO_abs="5240.524941" CO2_abs="366945.288202" HC_abs="31.605383" PMx_abs="5.446890" NOx_abs="139.675577" fuel_abs="117039.745201" electricity_abs="0"/>
    </tripinfo>
    <tripinfo id="f_0_0.11" depart="41.00" departLane="A2B2_0" departPos="5.10" departSpeed="0.00" departDelay="2.00" arrival="212.00" arrivalLane="C2D2_0" arrivalPos="492.80" arrivalSpeed="11.01" duration="171.00" routeLength="1495.00" waitingTime="21.00" waitingCount="2" stopTime="0.00" timeLoss="48.14" rerouteNo="0" devices="tripinfo_f_0_0.11 emissions_f_0_0.11" vType="DEFAULT_VEHTYPE" speedFactor="0.88" vaporized="">
        <emissions CO_abs="9107.937467" CO2_abs="424026.497223" HC_abs="51.082979" PMx_abs="6.808592" NOx_abs="168.225650" fuel_abs="135247.438862" electricity_abs="0"/>
    </tripinfo>
    <tripinfo id="f_0_0.12" depart="44.00" departLane="A2B2_0" departPos="5.10" departSpeed="0.00" departDelay="4.00" arrival="214.00" arrivalLane="C2D2_0" arrivalPos="492.80" arrivalSpeed="12.84" duration="170.00" routeLength="1495.00" waitingTime="20.00" waitingCount="2" stopTime="0.00" timeLoss="55.00" rerouteNo="0" devices="tripinfo_f_0_0.12 emissions_f_0_0.12" vType="DEFAULT_VEHTYPE" speedFactor="0.94" vaporized="">
        <emissions CO_abs="9869.601415" CO2_abs="461697.482388" HC_abs="55.573631" PMx_abs="7.993009" NOx_abs="187.363673" fuel_abs="147262.243130" electricity_abs="0"/>
    </tripinfo>
    <tripinfo id="f_0_0.13" depart="47.00" departLane="A2B2_0" departPos="5.10" departSpeed="0.00" departDelay="6.00" arrival="215.00" arrivalLane="C2D2_0" arrivalPos="492.80" arrivalSpeed="14.08" duration="168.00" routeLength="1495.00" waitingTime="19.00" waitingCount="2" stopTime="0.00" timeLoss="75.03" rerouteNo="0" devices="tripinfo_f_0_0.13 emissions_f_0_0.13" vType="DEFAULT_VEHTYPE" speedFactor="1.16" vaporized="">
        <emissions CO_abs="10626.521375" CO2_abs="501137.184686" HC_abs="59.970158" PMx_abs="9.166682" NOx_abs="206.687582" fuel_abs="159841.236600" electricity_abs="0"/>
    </tripinfo>
    <tripinfo id="f_0_0.14" depart="50.00" departLane="A2B2_0" departPos="5.10" departSpeed="0.00" departDelay="6.00" arrival="217.00" arrivalLane="C2D2_0" arrivalPos="492.80" arrivalSpeed="13.14" duration="167.00" routeLength="1495.00" waitingTime="17.00" waitingCount="2" stopTime="0.00" timeLoss="56.38" rerouteNo="0" devices="tripinfo_f_0_0.14 emissions_f_0_0.14" vType="DEFAULT_VEHTYPE" speedFactor="0.97" vaporized="">
        <emissions CO_abs="9881.517620" CO2_abs="475567.016637" HC_abs="55.840095" PMx_abs="8.376110" NOx_abs="193.507853" fuel_abs="151685.716629" electricity_abs="0"/>
    </tripinfo>
    <tripinfo id="f_0_1.12" depart="73.00" departLane="C4C3_0" departPos="5.10" departSpeed="0.00" departDelay="0.00" arrival="218.00" arrivalLane="C2C1_0" arrivalPos="492.80" arrivalSpeed="14.16" duration="145.00" routeLength="1495.00" waitingTime="15.00" waitingCount="2" stopTime="0.00" timeLoss="39.66" rerouteNo="0" devices="tripinfo_f_0_1.12 emissions_f_0_1.12" vType="DEFAULT_VEHTYPE" speedFactor="1.03" vaporized="">
        <emissions CO_abs="7526.279529" CO2_abs="407574.502272" HC_abs="43.102896" PMx_abs="6.672927" NOx_abs="160.281369" fuel_abs="129999.038985" electricity_abs="0"/>
    </tripinfo>
    <tripinfo id="f_0_1.13" depart="77.00" departLane="C4C3_0" departPos="5.10" departSpeed="0.00" departDelay="0.00" arrival="219.00" arrivalLane="C2C1_0" arrivalPos="492.80" arrivalSpeed="13.92" duration="142.00" routeLength="1495.00" waitingTime="13.00" waitingCount="2" stopTime="0.00" timeLoss="43.27" rerouteNo="0" devices="tripinfo_f_0_1.13 emissions_f_0_1.13" vType="DEFAULT_VEHTYPE" speedFactor="1.09" vaporized="">
        <emissions CO_abs="7625.064969" CO2_abs="417808.784549" HC_abs="43.796487" PMx_abs="7.104514" NOx_abs="166.139075" fuel_abs="133262.944326" electricity_abs="0"/>
    </tripinfo>
    <tripinfo id="f_0_2.8" depart="82.00" departLane="E2D2_0" departPos="5.10" departSpeed="0.00" departDelay="1.00" arrival="219.00" arrivalLane="C2B2_0" arrivalPos="492.80" arrivalSpeed="12.02" duration="137.00" routeLength="1495.00" waitingTime="0.00" waitingCount="0" stopTime="0.00" timeLoss="13.42" rerouteNo="0" devices="tripinfo_f_0_2.8 emissions_f_0_2.8" vType="DEFAULT_VEHTYPE" speedFactor="0.88" vaporized="">
        <emissions CO_abs="3780.230085" CO2_abs="320731.773093" HC_abs="24.387316" PMx_abs="4.330761" NOx_abs="121.038871" fuel_abs="102299.604289" electricity_abs="0"/>
    </tripinfo>
    <tripinfo id="f_0_1.14" depart="80.00" departLane="C4C3_0" departPos="5.10" departSpeed="0.00" departDelay="0.00" arrival="221.00" arrivalLane="C2C1_0" arrivalPos="492.80" arrivalSpeed="13.32" duration="141.00" routeLength="1495.00" waitingTime="13.00" waitingCount="2" stopTime="0.00" timeLoss="37.82" rerouteNo="0" devices="tripinfo_f_0_1.14 emissions_f_0_1.14" vType="DEFAULT_VEHTYPE" speedFactor="1.04" vaporized="">
        <emissions CO_abs="7211.699462" CO2_abs="388487.726945" HC_abs="41.203179" PMx_abs="6.397083" NOx_abs="152.991159" fuel_abs="123911.139750" electricity_abs="0"/>
    </tripinfo>
    <tripinfo id="f_0_3.1" depart="83.00" departLane="C0C1_0" departPos="5.10" departSpeed="0.00" departDelay="2.00" arrival="225.00" arrivalLane="C2C3_0" arrivalPos="492.80" arrivalSpeed="11.28" duration="142.00" routeLength="1495.00" waitingTime="2.00" waitingCount="1" stopTime="0.00" timeLoss="14.73" rerouteNo="0" devices="tripinfo_f_0_3.1 emissions_f_0_3.1" vType="DEFAULT_VEHTYPE" speedFactor="0.85" vaporized="">
        <emissions CO_abs="3930.412664" CO2_abs="324992.497600" HC_abs="25.197218" PMx_abs="4.184635" NOx_abs="121.631024" fuel_abs="103658.860170" electricity_abs="0"/>
    </tripinfo>
    <tripinfo id="f_0_2.9" depart="85.00" departLane="E2D2_0" departPos="5.10" departSpeed="0.00" departDelay="2.00" arrival="227.00" arrivalLane="C2B2_0" arrivalPos="492.80" arrivalSpeed="15.00" duration="142.00" routeLength="1495.00" waitingTime="14.00" waitingCount="1" stopTime="0.00" timeLoss="49.67" rerouteNo="0" devices="tripinfo_f_0_2.9 emissions_f_0_2.9" vType="DEFAULT_VEHTYPE" speedFactor="1.17" vaporized="">
        <emissions CO_abs="7158.529849" CO2_abs="407031.187520" HC_abs="41.694189" PMx_abs="6.849408" NOx_abs="162.114825" fuel_abs="129825.275736" electricity_abs="0"/>
    </tripinfo>
    <tripinfo id="f_0_3.2" depart="86.00" departLane="C0C1_0" departPos="5.10" departSpeed="0.00" departDelay="1.00" arrival="227.00" arrivalLane="C2C3_0" arrivalPos="492.80" arrivalSpeed="13.05" duration="141.00" routeLength="1495.00" waitingTime="1.00" waitingCount="1" stopTime="0.00" timeLoss="32.84" rerouteNo="0" devices="tripinfo_f_0_3.2 emissions_f_0_3.2" vType="DEFAULT_VEHTYPE" speedFactor="1.00" vaporized="">
        <emissions CO_abs="4846.909159" CO2_abs="352023.519193" HC_abs="29.992855" PMx_abs="5.367382" NOx_abs="137.470360" fuel_abs="112280.005103" electricity_abs="0"/>
    </tripinfo>
    <tripinfo id="f_0_3.3" depart="89.00" departLane="C0C1_0" departPos="5.10" departSpeed="0.00" departDelay="3.00" arrival="228.00" arrivalLane="C2C3_0" arrivalPos="492.80" arrivalSpeed="12.82" duration="139.00" routeLength="1495.00" waitingTime="0.00" waitingCount="0" stopTime="0.00" timeLoss="30.75" rerouteNo="0" devices="tripinfo_f_0_3.3 emissions_f_0_3.3" vType="DEFAULT_VEHTYPE" speedFactor="1.00" vaporized="">
        <emissions CO_abs="4789.797777" CO2_abs="363230.771780" HC_abs="30.024871" PMx_abs="5.502457" NOx_abs="141.544734" fuel_abs="115854.529609" electricity_abs="0"/>
    </tripinfo>
    <tripinfo id="f_0_1.15" depart="83.00" departLane="C4C3_0" departPos="5.10" departSpeed="0.00" departDelay="2.00" arrival="230.00" arrivalLane="C2C1_0" arrivalPos="492.80" arrivalSpeed="12.03" duration="147.00" routeLength="1495.00" waitingTime="10.00" waitingCount="1" stopTime="0.00" timeLoss="26.68" rerouteNo="0" devices="tripinfo_f_0_1.15 emissions_f_0_1.15" vType="DEFAULT_VEHTYPE" speedFactor="0.90" vaporized="">
        <emissions CO_abs="5521.062972" CO2_abs="350122.999113" HC_abs="32.795644" PMx_abs="4.886325" NOx_abs="132.755650" fuel_abs="111674.852144" electricity_abs="0"/>
    </tripinfo>
    <tripinfo id="f_0_3.4" depart="92.00" departLane="C0C1_0" departPos="5.10" departSpeed="0.00" departDelay="5.00" arrival="230.00" arrivalLane="C2C3_0" arrivalPos="492.80" arrivalSpeed="14.59" duration="138.00" routeLength="1495.00" waitingTime="0.00" waitingCount="0" stopTime="0.00" timeLoss="43.36" rerouteNo="0" devices="tripinfo_f_0_3.4 emissions_f_0_3.4" vType="DEFAULT_VEHTYPE" speedFactor="1.14" vaporized="">
        <emissions CO_abs="5332.917593" CO2_abs="392883.102955" HC_abs="33.253264" PMx_abs="6.417717" NOx_abs="156.414233" fuel_abs="125311.834367" electricity_abs="0"/>
    </tripinfo>
    <tripinfo id="f_0_3.5" depart="95.00" departLane="C0C1_0" departPos="5.10" departSpeed="0.00" departDelay="6.00" arrival="232.00" arrivalLane="C2C3_0" arrivalPos="492.80" arrivalSpeed="12.59" duration="137.00" routeLength="1495.00" waitingTime="0.00" waitingCount="0" stopTime="0.00" timeLoss="25.31" rerouteNo="0" devices="tripinfo_f_0_3.5 emissions_f_0_3.5" vType="DEFAULT_VEHTYPE" speedFactor="0.97" vaporized="">
        <emissions CO_abs="5098.184371" CO2_abs="378274.742860" HC_abs="31.680556" PMx_abs="5.960539" NOx_abs="148.852700" fuel_abs="120652.673265" electricity_abs="0"/>
    </tripinfo>
    <tripinfo id="f_0_1.16" depart="86.00" departLane="C4C3_0" departPos="5.10" departSpeed="0.00" departDelay="3.00" arrival="234.00" arrivalLane="C2C1_0" arrivalPos="492.80" arrivalSpeed="11.67" duration="148.00" routeLength="1495.00" waitingTime="5.00" waitingCount="1" stopTime="0.00" timeLoss="21.78" rerouteNo="0" devices="tripinfo_f_0_1.16 emissions_f_0_1.16" vType="DEFAULT_VEHTYPE" speedFactor="0.85" vaporized="">