<?xml version="1.0" encoding="UTF-8"?>

<!-- generated on 2024-08-22 13:37:26 by Eclipse SUMO sumo Version 1.17.0
<configuration xmlns:xsi="http://www.w3.org/2001/XMLSchema-instance" xsi:noNamespaceSchemaLocation="http://sumo.dlr.de/xsd/sumoConfiguration.xsd">

    <input>
        <net-file value="single_neat.net.xml"/>
        <route-files value="single_5.rou.xml"/>
    </input>

    <output>
        <tripinfo-output value="emissions_test\z14_data_All_stepThreshold_3000_gen_80_5emissionssingle.xml"/>
    </output>

    <processing>
        <time-to-teleport value="-1"/>
    </processing>

    <report>
        <no-warnings value="true"/>
    </report>

    <emissions>
        <device.emissions.probability value="1.0"/>
    </emissions>

    <traci_server>
        <remote-port value="58256"/>
    </traci_server>

</configuration>
-->

<tripinfos xmlns:xsi="http://www.w3.org/2001/XMLSchema-instance" xsi:noNamespaceSchemaLocation="http://sumo.dlr.de/xsd/tripinfo_file.xsd">
    <tripinfo id="f_0_0.0" depart="2.00" departLane="A2B2_0" departPos="5.10" departSpeed="0.00" departDelay="0.00" arrival="141.00" arrivalLane="C2D2_0" arrivalPos="492.80" arrivalSpeed="14.15" duration="139.00" routeLength="1495.00" waitingTime="23.00" waitingCount="1" stopTime="0.00" timeLoss="36.75" rerouteNo="0" devices="tripinfo_f_0_0.0 emissions_f_0_0.0" vType="DEFAULT_VEHTYPE" speedFactor="1.06" vaporized="">
        <emissions CO_abs="7116.603884" CO2_abs="385916.352842" HC_abs="40.371823" PMx_abs="6.172555" NOx_abs="149.431245" fuel_abs="123091.183884" electricity_abs="0"/>
    </tripinfo>
    <tripinfo id="f_0_0.1" depart="5.00" departLane="A2B2_0" departPos="5.10" departSpeed="0.00" departDelay="0.00" arrival="148.00" arrivalLane="C2D2_0" arrivalPos="492.80" arrivalSpeed="12.74" duration="143.00" routeLength="1495.00" waitingTime="13.00" waitingCount="1" stopTime="0.00" timeLoss="27.34" rerouteNo="0" devices="tripinfo_f_0_0.1 emissions_f_0_0.1" vType="DEFAULT_VEHTYPE" speedFactor="0.94" vaporized="">
        <emissions CO_abs="5633.388254" CO2_abs="358734.748354" HC_abs="33.423872" PMx_abs="5.102197" NOx_abs="136.182560" fuel_abs="114421.529825" electricity_abs="0"/>
    </tripinfo>
    <tripinfo id="f_0_0.2" depart="10.00" departLane="A2B2_0" departPos="5.10" departSpeed="0.00" departDelay="0.00" arrival="149.00" arrivalLane="C2D2_0" arrivalPos="492.80" arrivalSpeed="13.33" duration="139.00" routeLength="1495.00" waitingTime="12.00" waitingCount="1" stopTime="0.00" timeLoss="32.24" rerouteNo="0" devices="tripinfo_f_0_0.2 emissions_f_0_0.2" vType="DEFAULT_VEHTYPE" speedFactor="1.01" vaporized="">
        <emissions CO_abs="6062.504915" CO2_abs="368936.831952" HC_abs="35.800869" PMx_abs="5.874989" NOx_abs="144.587868" fuel_abs="117674.977166" electricity_abs="0"/>
    </tripinfo>
    <tripinfo id="f_0_0.3" depart="16.00" departLane="A2B2_0" departPos="5.10" departSpeed="0.00" departDelay="0.00" arrival="151.00" arrivalLane="C2D2_0" arrivalPos="492.80" arrivalSpeed="14.86" duration="135.00" routeLength="1495.00" waitingTime="12.00" waitingCount="1" stopTime="0.00" timeLoss="35.04" rerouteNo="0" devices="tripinfo_f_0_0.3 emissions_f_0_0.3" vType="DEFAULT_VEHTYPE" speedFactor="1.08" vaporized="">
        <emissions CO_abs="6197.126058" CO2_abs="383868.511637" HC_abs="36.692914" PMx_abs="6.357220" NOx_abs="151.443589" fuel_abs="122437.209063" electricity_abs="0"/>
    </tripinfo>
    <tripinfo id="f_0_0.4" depart="20.00" departLane="A2B2_0" departPos="5.10" departSpeed="0.00" departDelay="0.00" arrival="153.00" arrivalLane="C2D2_0" arrivalPos="492.80" arrivalSpeed="13.49" duration="133.00" routeLength="1495.00" waitingTime="9.00" waitingCount="1" stopTime="0.00" timeLoss="27.78" rerouteNo="0" devices="tripinfo_f_0_0.4 emissions_f_0_0.4" vType="DEFAULT_VEHTYPE" speedFactor="1.03" vaporized="">
        <emissions CO_abs="5765.919311" CO2_abs="369303.674694" HC_abs="34.189798" PMx_abs="5.848726" NOx_abs="143.700455" fuel_abs="117791.833993" electricity_abs="0"/>
    </tripinfo>
    <tripinfo id="f_0_1.0" depart="40.00" departLane="C4C3_0" departPos="5.10" departSpeed="0.00" departDelay="0.00" arrival="180.00" arrivalLane="C2C1_0" arrivalPos="492.80" arrivalSpeed="10.63" duration="140.00" routeLength="1495.00" waitingTime="0.00" waitingCount="0" stopTime="0.00" timeLoss="10.14" rerouteNo="0" devices="tripinfo_f_0_1.0 emissions_f_0_1.0" vType="DEFAULT_VEHTYPE" speedFactor="0.83" vaporized="">
        <emissions CO_abs="3233.304106" CO2_abs="301121.501799" HC_abs="21.440883" PMx_abs="3.549276" NOx_abs="110.379972" fuel_abs="96045.165872" electricity_abs="0"/>
    </tripinfo>
    <tripinfo id="f_0_1.1" depart="43.00" departLane="C4C3_0" departPos="5.10" departSpeed="0.00" departDelay="0.00" arrival="182.00" arrivalLane="C2C1_0" arrivalPos="492.80" arrivalSpeed="13.37" duration="139.00" routeLength="1495.00" waitingTime="0.00" waitingCount="0" stopTime="0.00" timeLoss="35.41" rerouteNo="0" devices="tripinfo_f_0_1.1 emissions_f_0_1.1" vType="DEFAULT_VEHTYPE" speedFactor="1.05" vaporized="">
        <emissions CO_abs="4330.306561" CO2_abs="349536.340043" HC_abs="27.701699" PMx_abs="5.078585" NOx_abs="135.063466" fuel_abs="111486.677326" electricity_abs="0"/>
    </tripinfo>
    <tripinfo id="f_0_1.2" depart="46.00" departLane="C4C3_0" departPos="5.10" departSpeed="0.00" departDelay="1.00" arrival="184.00" arrivalLane="C2C1_0" arrivalPos="492.80" arrivalSpeed="11.25" duration="138.00" routeLength="1495.00" waitingTime="0.00" waitingCount="0" stopTime="0.00" timeLoss="15.86" rerouteNo="0" devices="tripinfo_f_0_1.2 emissions_f_0_1.2" vType="DEFAULT_VEHTYPE" speedFactor="0.89" vaporized="">
        <emissions CO_abs="4328.456317" CO2_abs="342405.482232" HC_abs="27.545908" PMx_abs="5.174680" NOx_abs="133.739064" fuel_abs="109212.061677" electricity_abs="0"/>
    </tripinfo>
    <tripinfo id="f_0_1.3" depart="49.00" departLane="C4C3_0" departPos="5.10" departSpeed="0.00" departDelay="1.00" arrival="186.00" arrivalLane="C2C1_0" arrivalPos="492.80" arrivalSpeed="11.84" duration="137.00" routeLength="1495.00" waitingTime="0.00" waitingCount="0" stopTime="0.00" timeLoss="21.45" rerouteNo="0" devices="tripinfo_f_0_1.3 emissions_f_0_1.3" vType="DEFAULT_VEHTYPE" speedFactor="0.94" vaporized="">
        <emissions CO_abs="5105.792428" CO2_abs="382788.512948" HC_abs="32.069707" PMx_abs="6.302902" NOx_abs="153.029939" fuel_abs="122092.015421" electricity_abs="0"/>
    </tripinfo>
    <tripinfo id="f_0_1.4" depart="52.00" departLane="C4C3_0" departPos="5.10" departSpeed="0.00" departDelay="3.00" arrival="188.00" arrivalLane="C2C1_0" arrivalPos="492.80" arrivalSpeed="11.61" duration="136.00" routeLength="1495.00" waitingTime="0.00" waitingCount="0" stopTime="0.00" timeLoss="9.79" rerouteNo="0" devices="tripinfo_f_0_1.4 emissions_f_0_1.4" vType="DEFAULT_VEHTYPE" speedFactor="0.86" vaporized="">
        <emissions CO_abs="3399.912056" CO2_abs="312283.859921" HC_abs="22.536772" PMx_abs="4.057721" NOx_abs="117.043591" fuel_abs="99605.065373" electricity_abs="0"/>
    </tripinfo>
    <tripinfo id="f_0_1.5" depart="55.00" departLane="C4C3_0" departPos="5.10" departSpeed="0.00" departDelay="1.00" arrival="190.00" arrivalLane="C2C1_0" arrivalPos="492.80" arrivalSpeed="14.54" duration="135.00" routeLength="1495.00" waitingTime="0.00" waitingCount="0" stopTime="0.00" timeLoss="35.44" rerouteNo="0" devices="tripinfo_f_0_1.5 emissions_f_0_1.5" vType="DEFAULT_VEHTYPE" speedFactor="1.09" vaporized="">
        <emissions CO_abs="4410.461134" CO2_abs="352234.520977" HC_abs="28.241102" PMx_abs="5.515456" NOx_abs="138.726612" fuel_abs="112346.856420" electricity_abs="0"/>
    </tripinfo>
    <tripinfo id="f_0_1.6" depart="58.00" departLane="C4C3_0" departPos="5.10" departSpeed="0.00" departDelay="0.00" arrival="191.00" arrivalLane="C2C1_0" arrivalPos="492.80" arrivalSpeed="13.10" duration="133.00" routeLength="1495.00" waitingTime="5.00" waitingCount="1" stopTime="0.00" timeLoss="27.96" rerouteNo="0" devices="tripinfo_f_0_1.6 emissions_f_0_1.6" vType="DEFAULT_VEHTYPE" speedFactor="1.03" vaporized="">
        <emissions CO_abs="5287.758758" CO2_abs="368963.218794" HC_abs="32.259699" PMx_abs="5.901021" NOx_abs="144.797129" fuel_abs="117682.866140" electricity_abs="0"/>
    </tripinfo>
    <tripinfo id="f_0_2.0" depart="80.00" departLane="E2D2_0" departPos="5.10" departSpeed="0.00" departDelay="0.00" arrival="192.00" arrivalLane="C2B2_0" arrivalPos="492.80" arrivalSpeed="15.23" duration="112.00" routeLength="1495.00" waitingTime="2.00" waitingCount="1" stopTime="0.00" timeLoss="15.38" rerouteNo="0" devices="tripinfo_f_0_2.0 emissions_f_0_2.0" vType="DEFAULT_VEHTYPE" speedFactor="1.12" vaporized="">
        <emissions CO_abs="3700.817894" CO2_abs="328750.771470" HC_abs="23.567015" PMx_abs="4.939068" NOx_abs="124.047417" fuel_abs="104856.643902" electricity_abs="0"/>
    </tripinfo>
    <tripinfo id="f_0_1.7" depart="68.00" departLane="C4C3_0" departPos="5.10" departSpeed="0.00" departDelay="0.00" arrival="193.00" arrivalLane="C2C1_0" arrivalPos="492.80" arrivalSpeed="13.68" duration="125.00" routeLength="1495.00" waitingTime="1.00" waitingCount="1" stopTime="0.00" timeLoss="21.85" rerouteNo="0" devices="tripinfo_f_0_1.7 emissions_f_0_1.7" vType="DEFAULT_VEHTYPE" speedFactor="1.05" vaporized="">
        <emissions CO_abs="4018.346478" CO2_abs="343640.125545" HC_abs="25.950999" PMx_abs="5.203620" NOx_abs="132.360513" fuel_abs="109605.727970" electricity_abs="0"/>
    </tripinfo>
    <tripinfo id="f_0_2.1" depart="83.00" departLane="E2D2_0" departPos="5.10" departSpeed="0.00" departDelay="1.00" arrival="225.00" arrivalLane="C2B2_0" arrivalPos="492.80" arrivalSpeed="12.84" duration="142.00" routeLength="1495.00" waitingTime="14.00" waitingCount="2" stopTime="0.00" timeLoss="33.32" rerouteNo="0" devices="tripinfo_f_0_2.1 emissions_f_0_2.1" vType="DEFAULT_VEHTYPE" speedFactor="0.99" vaporized="">
        <emissions CO_abs="6650.213731" CO2_abs="381568.339034" HC_abs="38.474417" PMx_abs="6.018342" NOx_abs="148.900522" fuel_abs="121704.176024" electricity_abs="0"/>
    </tripinfo>
    <tripinfo id="f_0_2.2" depart="86.00" departLane="E2D2_0" departPos="5.10" departSpeed="0.00" departDelay="3.00" arrival="230.00" arrivalLane="C2B2_0" arrivalPos="492.80" arrivalSpeed="11.82" duration="144.00" routeLength="1495.00" waitingTime="8.00" waitingCount="1" stopTime="0.00" timeLoss="27.23" rerouteNo="0" devices="tripinfo_f_0_2.2 emissions_f_0_2.2" vType="DEFAULT_VEHTYPE" speedFactor="0.93" vaporized="">
        <emissions CO_abs="5711.602306" CO2_abs="373032.003799" HC_abs="34.322763" PMx_abs="5.572048" NOx_abs="144.066877" fuel_abs="118981.327281" electricity_abs="0"/>
    </tripinfo>
    <tripinfo id="f_0_2.3" depart="89.00" departLane="E2D2_0" departPos="5.10" departSpeed="0.00" departDelay="2.00" arrival="234.00" arrivalLane="C2B2_0" arrivalPos="492.80" arrivalSpeed="11.89" duration="145.00" routeLength="1495.00" waitingTime="6.00" waitingCount="1" stopTime="0.00" timeLoss="22.07" rerouteNo="0" devices="tripinfo_f_0_2.3 emissions_f_0_2.3" vType="DEFAULT_VEHTYPE" speedFactor="0.88" vaporized="">
        <emissions CO_abs="4803.813864" CO2_abs="346652.224048" HC_abs="29.535759" PMx_abs="4.689957" NOx_abs="130.867153" fuel_abs="110567.545289" electricity_abs="0"/>
    </tripinfo>
    <tripinfo id="f_0_2.4" depart="92.00" departLane="E2D2_0" departPos="5.10" departSpeed="0.00" departDelay="4.00" arrival="236.00" arrivalLane="C2B2_0" arrivalPos="492.80" arrivalSpeed="11.81" duration="144.00" routeLength="1495.00" waitingTime="4.00" waitingCount="1" stopTime="0.00" timeLoss="29.14" rerouteNo="0" devices="tripinfo_f_0_2.4 emissions_f_0_2.4" vType="DEFAULT_VEHTYPE" speedFactor="0.94" vaporized="">
        <emissions CO_abs="5538.628780" CO2_abs="366423.158097" HC_abs="33.582721" PMx_abs="5.712782" NOx_abs="143.989018" fuel_abs="116873.024898" electricity_abs="0"/>
    </tripinfo>
    <tripinfo id="f_0_2.5" depart="95.00" departLane="E2D2_0" departPos="5.10" departSpeed="0.00" departDelay="3.00" arrival="238.00" arrivalLane="C2B2_0" arrivalPos="492.80" arrivalSpeed="12.20" duration="143.00" routeLength="1495.00" waitingTime="3.00" waitingCount="1" stopTime="0.00" timeLoss="27.35" rerouteNo="0" devices="tripinfo_f_0_2.5 emissions_f_0_2.5" vType="DEFAULT_VEHTYPE" speedFactor="0.94" vaporized="">
        <emissions CO_abs="5323.642856" CO2_abs="354863.881650" HC_abs="32.327803" PMx_abs="5.486577" NOx_abs="139.054443" fuel_abs="113186.148921" electricity_abs="0"/>
    </tripinfo>
    <tripinfo id="f_0_2.6" depart="98.00" departLane="E2D2_0" departPos="5.10" departSpeed="0.00" departDelay="4.00" arrival="249.00" arrivalLane="C2B2_0" arrivalPos="492.80" arrivalSpeed="15.00" duration="151.00" routeLength="1495.00" waitingTime="15.00" waitingCount="2" stopTime="0.00" timeLoss="57.27" rerouteNo="0" devices="tripinfo_f_0_2.6 emissions_f_0_2.6" vType="DEFAULT_VEHTYPE" speedFactor="1.16" vaporized="">
        <emissions CO_abs="8040.164977" CO2_abs="412270.185792" HC_abs="45.653235" PMx_abs="7.022775" NOx_abs="164.691474" fuel_abs="131496.666361" electricity_abs="0"/>
    </tripinfo>
    <tripinfo id="f_0_3.0" depart="122.00" departLane="C0C1_0" departPos="5.10" departSpeed="0.00" departDelay="0.00" arrival="252.00" arrivalLane="C2C3_0" arrivalPos="492.80" arrivalSpeed="11.47" duration="130.00" routeLength="1495.00" waitingTime="0.00" waitingCount="0" stopTime="0.00" timeLoss="8.72" rerouteNo="0" devices="tripinfo_f_0_3.0 emissions_f_0_3.0" vType="DEFAULT_VEHTYPE" speedFactor="0.89" vaporized="">
        <emissions CO_abs="2759.466344" CO2_abs="290087.133251" HC_abs="18.833494" PMx_abs="3.532680" NOx_abs="106.191059" fuel_abs="92525.339173" electricity_abs="0"/>
    </tripinfo>
    <tripinfo id="f_0_2.7" depart="101.00" departLane="E2D2_0" departPos="5.10" departSpeed="0.00" departDelay="6.00" arrival="255.00" arrivalLane="C2B2_0" arrivalPos="492.80" arrivalSpeed="13.98" duration="154.00" routeLength="1495.00" waitingTime="14.00" waitingCount="2" stopTime="0.00" timeLoss="47.35" rerouteNo="0" devices="tripinfo_f_0_2.7 emissions_f_0_2.7" vType="DEFAULT_VEHTYPE" speedFactor="1.02" vaporized="">
        <emissions CO_abs="8006.196327" CO2_abs="407899.519138" HC_abs="45.324915" PMx_abs="6.717768" NOx_abs="161.586004" fuel_abs="130102.909563" electricity_abs="0"/>
    </tripinfo>
    <tripinfo id="f_0_2.8" depart="104.00" departLane="E2D2_0" departPos="5.10" departSpeed="0.00" departDelay="8.00" arrival="256.00" arrivalLane="C2B2_0" arrivalPos="492.80" arrivalSpeed="13.67" duration="152.00" routeLength="1495.00" waitingTime="14.00" waitingCount="2" stopTime="0.00" timeLoss="45.39" rerouteNo="0" devices="tripinfo_f_0_2.8 emissions_f_0_2.8" vType="DEFAULT_VEHTYPE" speedFactor="1.01" vaporized="">
        <emissions CO_abs="7785.379243" CO2_abs="405323.574678" HC_abs="44.216517" PMx_abs="6.572595" NOx_abs="159.625312" fuel_abs="129281.312303" electricity_abs="0"/>
    </tripinfo>
    <tripinfo id="f_0_2.9" depart="107.00" departLane="E2D2_0" departPos="5.10" departSpeed="0.00" departDelay="10.00" arrival="260.00" arrivalLane="C2B2_0" arrivalPos="492.80" arrivalSpeed="13.04" duration="153.00" routeLength="1495.00" waitingTime="10.00" waitingCount="1" stopTime="0.00" timeLoss="41.95" rerouteNo="0" devices="tripinfo_f_0_2.9 emissions_f_0_2.9" vType="DEFAULT_VEHTYPE" speedFactor="0.97" vaporized="">
        <emissions CO_abs="7208.407700" CO2_abs="392552.806484" HC_abs="41.356020" PMx_abs="6.201306" NOx_abs="153.435483" fuel_abs="125207.991018" electricity_abs="0"/>
    </tripinfo>
    <tripinfo id="f_0_3.1" depart="125.00" departLane="C0C1_0" departPos="5.10" departSpeed="0.00" departDelay="1.00" arrival="274.00" arrivalLane="C2C3_0" arrivalPos="492.80" arrivalSpeed="10.74" duration="149.00" routeLength="1495.00" waitingTime="3.00" waitingCount="1" stopTime="0.00" timeLoss="18.04" rerouteNo="0" devices="tripinfo_f_0_3.1 emissions_f_0_3.1" vType="DEFAULT_VEHTYPE" speedFactor="0.83" vaporized="">
        <emissions CO_abs="4778.475274" CO2_abs="343911.421586" HC_abs="29.546870" PMx_abs="4.587516" NOx_abs="130.230274" fuel_abs="109693.376035" electricity_abs="0"/>
    </tripinfo>
    <tripinfo id="f_0_3.2" depart="139.00" departLane="C0C1_0" departPos="5.10" departSpeed="0.00" departDelay="0.00" arrival="276.00" arrivalLane="C2C3_0" arrivalPos="492.80" arrivalSpeed="11.38" duration="137.00" routeLength="1495.00" waitingTime="0.00" waitingCount="0" stopTime="0.00" timeLoss="12.82" rerouteNo="0" devices="tripinfo_f_0_3.2 emissions_f_0_3.2" vType="DEFAULT_VEHTYPE" speedFactor="0.87" vaporized="">
        <emissions CO_abs="3637.771882" CO2_abs="316025.565936" HC_abs="23.666993" PMx_abs="4.359403" NOx_abs="120.163316" fuel_abs="100798.344145" electricity_abs="0"/>
    </tripinfo>
    <tripinfo id="f_0_3.3" depart="145.00" departLane="C0C1_0" departPos="5.10" departSpeed="0.00" departDelay="0.00" arrival="277.00" arrivalLane="C2C3_0" arrivalPos="492.80" arrivalSpeed="11.92" duration="132.00" routeLength="1495.00" waitingTime="0.00" waitingCount="0" stopTime="0.00" timeLoss="14.53" rerouteNo="0" devices="tripinfo_f_0_3.3 emissions_f_0_3.3" vType="DEFAULT_VEHTYPE" speedFactor="0.92" vaporized="">
        <emissions CO_abs="3861.574165" CO2_abs="331630.795703" HC_abs="24.932867" PMx_abs="4.818199" NOx_abs="127.401614" fuel_abs="105775.470750" electricity_abs="0"/>
    </tripinfo>
    <tripinfo id="f_0_3.4" depart="148.00" departLane="C0C1_0" departPos="5.10" departSpeed="0.00" departDelay="1.00" arrival="279.00" arrivalLane="C2C3_0" arrivalPos="492.80" arrivalSpeed="12.91" duration="131.00" routeLength="1495.00" waitingTime="0.00" waitingCount="0" stopTime="0.00" timeLoss="17.19" rerouteNo="0" devices="tripinfo_f_0_3.4 emissions_f_0_3.4" vType="DEFAULT_VEHTYPE" speedFactor="0.95" vaporized="">
        <emissions CO_abs="4210.043061" CO2_abs="354006.867263" HC_abs="27.062370" PMx_abs="5.412645" NOx_abs="137.817816" fuel_abs="112912.180713" electricity_abs="0"/>
    </tripinfo>
    <tripinfo id="f_1_1.0" depart="200.00" departLane="C4C3_0" departPos="5.10" departSpeed="0.00" departDelay="0.00" arrival="304.00" arrivalLane="C2C1_0" arrivalPos="492.80" arrivalSpeed="15.30" duration="104.00" routeLength="1495.00" waitingTime="0.00" waitingCount="0" stopTime="0.00" timeLoss="8.41" rerouteNo="0" devices="tripinfo_f_1_1.0 emissions_f_1_1.0" vType="DEFAULT_VEHTYPE" speedFactor="1.13" vaporized="">
        <emissions CO_abs="2487.104995" CO2_abs="293540.196798" HC_abs="17.027385" PMx_abs="4.039795" NOx_abs="107.326490" fuel_abs="93625.978436" electricity_abs="0"/>
    </tripinfo>
    <tripinfo id="f_1_3.0" depart="205.00" departLane="C0C1_0" departPos="5.10" departSpeed="0.00" departDelay="0.00" arrival="304.00" arrivalLane="C2C3_0" arrivalPos="492.80" arrivalSpeed="15.92" duration="99.00" routeLength="1495.00" waitingTime="0.00" waitingCount="0" stopTime="0.00" timeLoss="7.55" rerouteNo="0" devices="tripinfo_f_1_3.0 emissions_f_1_3.0" vType="DEFAULT_VEHTYPE" speedFactor="1.18" vaporized="">
        <emissions CO_abs="2333.477721" CO2_abs="289323.877568" HC_abs="16.407897" PMx_abs="4.121778" NOx_abs="106.224903" fuel_abs="92281.011929" electricity_abs="0"/>
    </tripinfo>
    <tripinfo id="f_1_1.1" depart="208.00" departLane="C4C3_0" departPos="5.10" departSpeed="0.00" departDelay="0.00" arrival="310.00" arrivalLane="C2C1_0" arrivalPos="492.80" arrivalSpeed="14.76" duration="102.00" routeLength="1495.00" waitingTime="0.00" waitingCount="0" stopTime="0.00" timeLoss="7.86" rerouteNo="0" devices="tripinfo_f_1_1.1 emissions_f_1_1.1" vType="DEFAULT_VEHTYPE" speedFactor="1.15" vaporized="">
        <emissions CO_abs="2172.202397" CO2_abs="288591.780595" HC_abs="15.534216" PMx_abs="3.884105" NOx_abs="104.689397" fuel_abs="92047.622557" electricity_abs="0"/>
    </tripinfo>
    <tripinfo id="f_1_3.1" depart="214.00" departLane="C0C1_0" departPos="5.10" departSpeed="0.00" departDelay="0.00" arrival="313.00" arrivalLane="C2C3_0" arrivalPos="492.80" arrivalSpeed="15.56" duration="99.00" routeLength="1495.00" waitingTime="0.00" waitingCount="0" stopTime="0.00" timeLoss="6.77" rerouteNo="0" devices="tripinfo_f_1_3.1 emissions_f_1_3.1" vType="DEFAULT_VEHTYPE" speedFactor="1.17" vaporized="">
        <emissions CO_abs="2019.211723" CO2_abs="283971.060931" HC_abs="14.553995" PMx_abs="3.753069" NOx_abs="101.333900" fuel_abs="90573.843921" electricity_abs="0"/>
    </tripinfo>
    <tripinfo id="f_1_0.0" depart="209.00" departLane="A2B2_0" departPos="5.10" departSpeed="0.00" departDelay="0.00" arrival="325.00" arrivalLane="C2D2_0" arrivalPos="492.80" arrivalSpeed="13.74" duration="116.00" routeLength="1495.00" waitingTime="0.00" waitingCount="0" stopTime="0.00" timeLoss="8.82" rerouteNo="0" devices="tripinfo_f_1_0.0 emissions_f_1_0.0" vType="DEFAULT_VEHTYPE" speedFactor="1.01" vaporized="">
        <emissions CO_abs="2504.475636" CO2_abs="306923.430895" HC_abs="17.747436" PMx_abs="3.895249" NOx_abs="111.827232" fuel_abs="97894.972648" electricity_abs="0"/>
    </tripinfo>
    <tripinfo id="f_1_2.0" depart="201.00" departLane="E2D2_0" departPos="5.10" departSpeed="0.00" departDelay="0.00" arrival="330.00" arrivalLane="C2B2_0" arrivalPos="492.80" arrivalSpeed="12.67" duration="129.00" routeLength="1495.00" waitingTime="1.00" waitingCount="1" stopTime="0.00" timeLoss="13.22" rerouteNo="0" devices="tripinfo_f_1_2.0 emissions_f_1_2.0" vType="DEFAULT_VEHTYPE" speedFactor="0.93" vaporized="">
        <emissions CO_abs="3327.324928" CO2_abs="320626.701427" HC_abs="21.866805" PMx_abs="4.111901" NOx_abs="118.257083" fuel_abs="102266.074594" electricity_abs="0"/>
    </tripinfo>
    <tripinfo id="f_1_1.2" depart="222.00" departLane="C4C3_0" departPos="5.10" departSpeed="0.00" departDelay="0.00" arrival="336.00" arrivalLane="C2C1_0" arrivalPos="492.80" arrivalSpeed="16.03" duration="114.00" routeLength="1495.00" waitingTime="8.00" waitingCount="1" stopTime="0.00" timeLoss="22.45" rerouteNo="0" devices="tripinfo_f_1_1.2 emissions_f_1_1.2" vType="DEFAULT_VEHTYPE" speedFactor="1.18" vaporized="">
        <emissions CO_abs="4948.602123" CO2_abs="354911.422598" HC_abs="29.762097" PMx_abs="5.607890" NOx_abs="135.485293" fuel_abs="113200.989576" electricity_abs="0"/>
    </tripinfo>
    <tripinfo id="f_1_3.2" depart="217.00" departLane="C0C1_0" departPos="5.10" departSpeed="0.00" departDelay="2.00" arrival="343.00" arrivalLane="C2C3_0" arrivalPos="492.80" arrivalSpeed="12.77" duration="126.00" routeLength="1495.00" waitingTime="4.00" waitingCount="1" stopTime="0.00" timeLoss="16.97" rerouteNo="0" devices="tripinfo_f_1_3.2 emissions_f_1_3.2" vType="DEFAULT_VEHTYPE" speedFactor="0.99" vaporized="">
        <emissions CO_abs="3875.853471" CO2_abs="328393.689526" HC_abs="24.690102" PMx_abs="4.642668" NOx_abs="123.882273" fuel_abs="104743.207930" electricity_abs="0"/>
    </tripinfo>
    <tripinfo id="f_1_1.3" depart="225.00" departLane="C4C3_0" departPos="5.10" departSpeed="0.00" departDelay="0.00" arrival="343.00" arrivalLane="C2C1_0" arrivalPos="492.80" arrivalSpeed="13.47" duration="118.00" routeLength="1495.00" waitingTime="0.00" waitingCount="0" stopTime="0.00" timeLoss="12.92" rerouteNo="0" devices="tripinfo_f_1_1.3 emissions_f_1_1.3" vType="DEFAULT_VEHTYPE" speedFactor="1.03" vaporized="">
        <emissions CO_abs="3144.070070" CO2_abs="324797.374638" HC_abs="20.916323" PMx_abs="4.419212" NOx_abs="120.155028" fuel_abs="103595.910075" electricity_abs="0"/>
    </tripinfo>
    <tripinfo id="f_1_3.3" depart="220.00" departLane="C0C1_0" departPos="5.10" departSpeed="0.00" departDelay="0.00" arrival="344.00" arrivalLane="C2C3_0" arrivalPos="492.80" arrivalSpeed="14.12" duration="124.00" routeLength="1495.00" waitingTime="2.00" waitingCount="1" stopTime="0.00" timeLoss="18.23" rerouteNo="0" devices="tripinfo_f_1_3.3 emissions_f_1_3.3" vType="DEFAULT_VEHTYPE" speedFactor="1.02" vaporized="">
        <emissions CO_abs="4099.621406" CO2_abs="338670.609225" HC_abs="25.919175" PMx_abs="5.060527" NOx_abs="129.564482" fuel_abs="108020.829193" electricity_abs="0"/>
    </tripinfo>
    <tripinfo id="f_1_1.4" depart="231.00" departLane="C4C3_0" departPos="5.10" departSpeed="0.00" departDelay="0.00" arrival="345.00" arrivalLane="C2C1_0" arrivalPos="492.80" arrivalSpeed="14.14" duration="114.00" routeLength="1495.00" waitingTime="0.00" waitingCount="0" stopTime="0.00" timeLoss="10.10" rerouteNo="0" devices="tripinfo_f_1_1.4 emissions_f_1_1.4" vType="DEFAULT_VEHTYPE" speedFactor="1.04" vaporized="">
        <emissions CO_abs="2775.764017" CO2_abs="307755.267686" HC_abs="18.985269" PMx_abs="4.256575" NOx_abs="114.621808" fuel_abs="98160.028230" electricity_abs="0"/>
    </tripinfo>
    <tripinfo id="f_1_3.4" depart="223.00" departLane="C0C1_0" departPos="5.10" departSpeed="0.00" departDelay="2.00" arrival="347.00" arrivalLane="C2C3_0" arrivalPos="492.80" arrivalSpeed="12.92" duration="124.00" routeLength="1495.00" waitingTime="0.00" waitingCount="0" stopTime="0.00" timeLoss="12.72" rerouteNo="0" devices="tripinfo_f_1_3.4 emissions_f_1_3.4" vType="DEFAULT_VEHTYPE" speedFactor="0.97" vaporized="">
        <emissions CO_abs="3082.797575" CO2_abs="318135.810819" HC_abs="20.886541" PMx_abs="4.286318" NOx_abs="118.857907" fuel_abs="101471.200084" electricity_abs="0"/>
    </tripinfo>
    <tripinfo id="f_1_3.5" depart="226.00" departLane="C0C1_0" departPos="5.10" departSpeed="0.00" departDelay="4.00" arrival="348.00" arrivalLane="C2C3_0" arrivalPos="492.80" arrivalSpeed="14.36" duration="122.00" routeLength="1495.00" waitingTime="0.00" waitingCount="0" stopTime="0.00" timeLoss="24.26" rerouteNo="0" devices="tripinfo_f_1_3.5 emissions_f_1_3.5" vType="DEFAULT_VEHTYPE" speedFactor="1.10" vaporized="">
        <emissions CO_abs="3643.671245" CO2_abs="328567.934297" HC_abs="23.831245" PMx_abs="4.991675" NOx_abs="126.810209" fuel_abs="104798.218016" electricity_abs="0"/>
    </tripinfo>
    <tripinfo id="f_1_3.6" depart="229.00" departLane="C0C1_0" departPos="5.10" departSpeed="0.00" departDelay="5.00" arrival="358.00" arrivalLane="C2C3_0" arrivalPos="492.80" arrivalSpeed="11.73" duration="129.00" routeLength="1495.00" waitingTime="0.00" waitingCount="0" stopTime="0.00" timeLoss="9.16" rerouteNo="0" devices="tripinfo_f_1_3.6 emissions_f_1_3.6" vType="DEFAULT_VEHTYPE" speedFactor="0.90" vaporized="">
        <emissions CO_abs="2657.604055" CO2_abs="287801.743675" HC_abs="18.512807" PMx_abs="3.495477" NOx_abs="105.606748" fuel_abs="91796.340129" electricity_abs="0"/>
    </tripinfo>
    <tripinfo id="f_1_3.7" depart="232.00" departLane="C0C1_0" departPos="5.10" departSpeed="0.00" departDelay="2.00" arrival="360.00" arrivalLane="C2C3_0" arrivalPos="492.80" arrivalSpeed="15.02" duration="128.00" routeLength="1495.00" waitingTime="0.00" waitingCount="0" stopTime="0.00" timeLoss="28.62" rerouteNo="0" devices="tripinfo_f_1_3.7 emissions_f_1_3.7" vType="DEFAULT_VEHTYPE" speedFactor="1.09" vaporized="">
        <emissions CO_abs="3775.829864" CO2_abs="337614.457957" HC_abs="24.755116" PMx_abs="4.989186" NOx_abs="130.126073" fuel_abs="107683.817271" electricity_abs="0"/>
    </tripinfo>
    <tripinfo id="f_1_3.8" depart="235.00" departLane="C0C1_0" departPos="5.10" departSpeed="0.00" departDelay="0.00" arrival="361.00" arrivalLane="C2C3_0" arrivalPos="492.80" arrivalSpeed="13.38" duration="126.00" routeLength="1495.00" waitingTime="0.00" waitingCount="0" stopTime="0.00" timeLoss="18.09" rerouteNo="0" devices="tripinfo_f_1_3.8 emissions_f_1_3.8" vType="DEFAULT_VEHTYPE" speedFactor="1.00" vaporized="">
        <emissions CO_abs="4100.436968" CO2_abs="346308.329481" HC_abs="26.484150" PMx_abs="5.504554" NOx_abs="136.201069" fuel_abs="110456.451802" electricity_abs="0"/>
    </tripinfo>
    <tripinfo id="f_1_3.9" depart="238.00" departLane="C0C1_0" departPos="5.10" departSpeed="0.00" departDelay="1.00" arrival="367.00" arrivalLane="C2C3_0" arrivalPos="492.80" arrivalSpeed="11.41" duration="129.00" routeLength="1495.00" waitingTime="0.00" waitingCount="0" stopTime="0.00" timeLoss="9.29" rerouteNo="0" devices="tripinfo_f_1_3.9 emissions_f_1_3.9" vType="DEFAULT_VEHTYPE" speedFactor="0.90" vaporized="">
        <emissions CO_abs="2537.726200" CO2_abs="290857.268970" HC_abs="17.749789" PMx_abs="3.279345" NOx_abs="104.382467" fuel_abs="92771.158156" electricity_abs="0"/>
    </tripinfo>
    <tripinfo id="f_1_2.1" depart="232.00" departLane="E2D2_0" departPos="5.10" departSpeed="0.00" departDelay="0.00" arrival="368.00" arrivalLane="C2B2_0" arrivalPos="492.80" arrivalSpeed="15.00" duration="136.00" routeLength="1495.00" waitingTime="24.00" waitingCount="1" stopTime="0.00" timeLoss="37.07" rerouteNo="0" devices="tripinfo_f_1_2.1 emissions_f_1_2.1" vType="DEFAULT_VEHTYPE" speedFactor="1.09" vaporized="">
        <emissions CO_abs="7264.086895" CO2_abs="386533.438666" HC_abs="41.135043" PMx_abs="6.215627" NOx_abs="149.765258" fuel_abs="123288.052555" electricity_abs="0"/>
    </tripinfo>
    <tripinfo id="f_1_0.1" depart="230.00" departLane="A2B2_0" departPos="5.10" departSpeed="0.00" departDelay="0.00" arrival="374.00" arrivalLane="C2D2_0" arrivalPos="492.80" arrivalSpeed="13.18" duration="144.00" routeLength="1495.00" waitingTime="16.00" waitingCount="1" stopTime="0.00" timeLoss="30.69" rerouteNo="0" devices="tripinfo_f_1_0.1 emissions_f_1_0.1" vType="DEFAULT_VEHTYPE" speedFactor="0.96" vaporized="">
        <emissions CO_abs="5964.441124" CO2_abs="363857.447550" HC_abs="35.026410" PMx_abs="5.288538" NOx_abs="138.789749" fuel_abs="116055.475441" electricity_abs="0"/>
    </tripinfo>
    <tripinfo id="f_1_0.2" depart="233.00" departLane="A2B2_0" departPos="5.10" departSpeed="0.00" departDelay="2.00" arrival="375.00" arrivalLane="C2D2_0" arrivalPos="492.80" arrivalSpeed="13.90" duration="142.00" routeLength="1495.00" waitingTime="15.00" waitingCount="1" stopTime="0.00" timeLoss="38.10" rerouteNo="0" devices="tripinfo_f_1_0.2 emissions_f_1_0.2" vType="DEFAULT_VEHTYPE" speedFactor="1.04" vaporized="">