<?xml version="1.0" encoding="UTF-8"?>

<!-- generated on 2024-08-22 13:37:14 by Eclipse SUMO sumo Version 1.17.0
<configuration xmlns:xsi="http://www.w3.org/2001/XMLSchema-instance" xsi:noNamespaceSchemaLocation="http://sumo.dlr.de/xsd/sumoConfiguration.xsd">

    <input>
        <net-file value="single_neat.net.xml"/>
        <route-files value="single_2.rou.xml"/>
    </input>

    <output>
        <tripinfo-output value="emissions_test\z14_data_All_stepThreshold_3000_gen_80_2emissionssingle.xml"/>
    </output>

    <processing>
        <time-to-teleport value="-1"/>
    </processing>

    <report>
        <no-warnings value="true"/>
    </report>

    <emissions>
        <device.emissions.probability value="1.0"/>
    </emissions>

    <traci_server>
        <remote-port value="58249"/>
    </traci_server>

</configuration>
-->

<tripinfos xmlns:xsi="http://www.w3.org/2001/XMLSchema-instance" xsi:noNamespaceSchemaLocation="http://sumo.dlr.de/xsd/tripinfo_file.xsd">
    <tripinfo id="f_0_0.0" depart="2.00" departLane="A2B2_0" departPos="5.10" departSpeed="0.00" departDelay="0.00" arrival="136.00" arrivalLane="C2D2_0" arrivalPos="492.80" arrivalSpeed="13.50" duration="134.00" routeLength="1495.00" waitingTime="18.00" waitingCount="1" stopTime="0.00" timeLoss="32.44" rerouteNo="0" devices="tripinfo_f_0_0.0 emissions_f_0_0.0" vType="DEFAULT_VEHTYPE" speedFactor="1.06" vaporized="">
        <emissions CO_abs="6450.289221" CO2_abs="370265.460715" HC_abs="37.158880" PMx_abs="5.956638" NOx_abs="144.098482" fuel_abs="118098.926986" electricity_abs="0"/>
    </tripinfo>
    <tripinfo id="f_0_0.1" depart="5.00" departLane="A2B2_0" departPos="5.10" departSpeed="0.00" departDelay="0.00" arrival="143.00" arrivalLane="C2D2_0" arrivalPos="492.80" arrivalSpeed="12.80" duration="138.00" routeLength="1495.00" waitingTime="8.00" waitingCount="1" stopTime="0.00" timeLoss="23.22" rerouteNo="0" devices="tripinfo_f_0_0.1 emissions_f_0_0.1" vType="DEFAULT_VEHTYPE" speedFactor="0.94" vaporized="">
        <emissions CO_abs="4913.801674" CO2_abs="340239.117247" HC_abs="29.683853" PMx_abs="4.760358" NOx_abs="128.561664" fuel_abs="108522.000443" electricity_abs="0"/>
    </tripinfo>
    <tripinfo id="f_0_0.2" depart="10.00" departLane="A2B2_0" departPos="5.10" departSpeed="0.00" departDelay="0.00" arrival="145.00" arrivalLane="C2D2_0" arrivalPos="492.80" arrivalSpeed="13.33" duration="135.00" routeLength="1495.00" waitingTime="7.00" waitingCount="1" stopTime="0.00" timeLoss="28.07" rerouteNo="0" devices="tripinfo_f_0_0.2 emissions_f_0_0.2" vType="DEFAULT_VEHTYPE" speedFactor="1.01" vaporized="">
        <emissions CO_abs="5460.666646" CO2_abs="362606.926428" HC_abs="33.092489" PMx_abs="5.778533" NOx_abs="142.333737" fuel_abs="115655.701073" electricity_abs="0"/>
    </tripinfo>
    <tripinfo id="f_0_0.3" depart="16.00" departLane="A2B2_0" departPos="5.10" departSpeed="0.00" departDelay="0.00" arrival="147.00" arrivalLane="C2D2_0" arrivalPos="492.80" arrivalSpeed="14.92" duration="131.00" routeLength="1495.00" waitingTime="7.00" waitingCount="1" stopTime="0.00" timeLoss="30.80" rerouteNo="0" devices="tripinfo_f_0_0.3 emissions_f_0_0.3" vType="DEFAULT_VEHTYPE" speedFactor="1.08" vaporized="">
        <emissions CO_abs="5494.348057" CO2_abs="379241.552864" HC_abs="33.375005" PMx_abs="6.141009" NOx_abs="148.768035" fuel_abs="120961.167523" electricity_abs="0"/>
    </tripinfo>
    <tripinfo id="f_0_0.4" depart="20.00" departLane="A2B2_0" departPos="5.10" departSpeed="0.00" departDelay="0.00" arrival="149.00" arrivalLane="C2D2_0" arrivalPos="492.80" arrivalSpeed="13.15" duration="129.00" routeLength="1495.00" waitingTime="5.00" waitingCount="1" stopTime="0.00" timeLoss="23.63" rerouteNo="0" devices="tripinfo_f_0_0.4 emissions_f_0_0.4" vType="DEFAULT_VEHTYPE" speedFactor="1.03" vaporized="">
        <emissions CO_abs="4624.081748" CO2_abs="346317.419259" HC_abs="28.485625" PMx_abs="5.208944" NOx_abs="132.602081" fuel_abs="110460.072075" electricity_abs="0"/>
    </tripinfo>
    <tripinfo id="f_0_1.0" depart="27.00" departLane="C4C3_0" departPos="5.10" departSpeed="0.00" departDelay="0.00" arrival="151.00" arrivalLane="C2C1_0" arrivalPos="492.80" arrivalSpeed="14.15" duration="124.00" routeLength="1495.00" waitingTime="6.00" waitingCount="1" stopTime="0.00" timeLoss="20.60" rerouteNo="0" devices="tripinfo_f_0_1.0 emissions_f_0_1.0" vType="DEFAULT_VEHTYPE" speedFactor="1.05" vaporized="">
        <emissions CO_abs="4303.847857" CO2_abs="344908.650747" HC_abs="26.853814" PMx_abs="4.932826" NOx_abs="129.566492" fuel_abs="110010.847560" electricity_abs="0"/>
    </tripinfo>
    <tripinfo id="f_0_1.1" depart="30.00" departLane="C4C3_0" departPos="5.10" departSpeed="0.00" departDelay="1.00" arrival="157.00" arrivalLane="C2C1_0" arrivalPos="492.80" arrivalSpeed="12.51" duration="127.00" routeLength="1495.00" waitingTime="0.00" waitingCount="0" stopTime="0.00" timeLoss="11.50" rerouteNo="0" devices="tripinfo_f_0_1.1 emissions_f_0_1.1" vType="DEFAULT_VEHTYPE" speedFactor="0.94" vaporized="">
        <emissions CO_abs="3196.590592" CO2_abs="308325.479470" HC_abs="21.372821" PMx_abs="4.216469" NOx_abs="116.207665" fuel_abs="98342.189851" electricity_abs="0"/>
    </tripinfo>
    <tripinfo id="f_0_1.2" depart="42.00" departLane="C4C3_0" departPos="5.10" departSpeed="0.00" departDelay="0.00" arrival="158.00" arrivalLane="C2C1_0" arrivalPos="492.80" arrivalSpeed="13.15" duration="116.00" routeLength="1495.00" waitingTime="0.00" waitingCount="0" stopTime="0.00" timeLoss="11.08" rerouteNo="0" devices="tripinfo_f_0_1.2 emissions_f_0_1.2" vType="DEFAULT_VEHTYPE" speedFactor="1.03" vaporized="">
        <emissions CO_abs="2766.528356" CO2_abs="304071.486503" HC_abs="18.966307" PMx_abs="4.197266" NOx_abs="113.381669" fuel_abs="96985.110010" electricity_abs="0"/>
    </tripinfo>
    <tripinfo id="f_0_1.3" depart="45.00" departLane="C4C3_0" departPos="5.10" departSpeed="0.00" departDelay="0.00" arrival="160.00" arrivalLane="C2C1_0" arrivalPos="492.80" arrivalSpeed="14.49" duration="115.00" routeLength="1495.00" waitingTime="0.00" waitingCount="0" stopTime="0.00" timeLoss="18.70" rerouteNo="0" devices="tripinfo_f_0_1.3 emissions_f_0_1.3" vType="DEFAULT_VEHTYPE" speedFactor="1.12" vaporized="">
        <emissions CO_abs="3386.025798" CO2_abs="331775.612741" HC_abs="22.649820" PMx_abs="5.052058" NOx_abs="127.163872" fuel_abs="105821.155619" electricity_abs="0"/>
    </tripinfo>
    <tripinfo id="f_0_2.0" depart="45.00" departLane="E2D2_0" departPos="5.10" departSpeed="0.00" departDelay="0.00" arrival="180.00" arrivalLane="C2B2_0" arrivalPos="492.80" arrivalSpeed="13.51" duration="135.00" routeLength="1495.00" waitingTime="13.00" waitingCount="1" stopTime="0.00" timeLoss="25.62" rerouteNo="0" devices="tripinfo_f_0_2.0 emissions_f_0_2.0" vType="DEFAULT_VEHTYPE" speedFactor="0.99" vaporized="">
        <emissions CO_abs="5296.224864" CO2_abs="341568.564903" HC_abs="31.403683" PMx_abs="5.171032" NOx_abs="131.385915" fuel_abs="108945.795007" electricity_abs="0"/>
    </tripinfo>
    <tripinfo id="f_0_2.1" depart="50.00" departLane="E2D2_0" departPos="5.10" departSpeed="0.00" departDelay="0.00" arrival="185.00" arrivalLane="C2B2_0" arrivalPos="492.80" arrivalSpeed="11.80" duration="135.00" routeLength="1495.00" waitingTime="3.00" waitingCount="1" stopTime="0.00" timeLoss="18.12" rerouteNo="0" devices="tripinfo_f_0_2.1 emissions_f_0_2.1" vType="DEFAULT_VEHTYPE" speedFactor="0.93" vaporized="">
        <emissions CO_abs="3972.971523" CO2_abs="320561.877149" HC_abs="24.906757" PMx_abs="4.259598" NOx_abs="119.695515" fuel_abs="102245.631233" electricity_abs="0"/>
    </tripinfo>
    <tripinfo id="f_0_2.2" depart="65.00" departLane="E2D2_0" departPos="5.10" departSpeed="0.00" departDelay="0.00" arrival="186.00" arrivalLane="C2B2_0" arrivalPos="492.80" arrivalSpeed="13.46" duration="121.00" routeLength="1495.00" waitingTime="0.00" waitingCount="0" stopTime="0.00" timeLoss="14.29" rerouteNo="0" devices="tripinfo_f_0_2.2 emissions_f_0_2.2" vType="DEFAULT_VEHTYPE" speedFactor="1.01" vaporized="">
        <emissions CO_abs="2995.990371" CO2_abs="310681.326872" HC_abs="20.052677" PMx_abs="4.159167" NOx_abs="115.371648" fuel_abs="99093.564577" electricity_abs="0"/>
    </tripinfo>
    <tripinfo id="f_0_0.5" depart="25.00" departLane="A2B2_0" departPos="5.10" departSpeed="0.00" departDelay="0.00" arrival="187.00" arrivalLane="C2D2_0" arrivalPos="492.80" arrivalSpeed="11.32" duration="162.00" routeLength="1495.00" waitingTime="17.00" waitingCount="1" stopTime="0.00" timeLoss="32.22" rerouteNo="0" devices="tripinfo_f_0_0.5 emissions_f_0_0.5" vType="DEFAULT_VEHTYPE" speedFactor="0.83" vaporized="">
        <emissions CO_abs="6989.770419" CO2_abs="373284.080254" HC_abs="40.346779" PMx_abs="5.429818" NOx_abs="144.486961" fuel_abs="119062.638168" electricity_abs="0"/>
    </tripinfo>
    <tripinfo id="f_0_2.3" depart="68.00" departLane="E2D2_0" departPos="5.10" departSpeed="0.00" departDelay="1.00" arrival="188.00" arrivalLane="C2B2_0" arrivalPos="492.80" arrivalSpeed="12.68" duration="120.00" routeLength="1495.00" waitingTime="0.00" waitingCount="0" stopTime="0.00" timeLoss="9.33" rerouteNo="0" devices="tripinfo_f_0_2.3 emissions_f_0_2.3" vType="DEFAULT_VEHTYPE" speedFactor="0.97" vaporized="">
        <emissions CO_abs="2324.381029" CO2_abs="293897.085587" HC_abs="16.456483" PMx_abs="3.458308" NOx_abs="105.371524" fuel_abs="93740.393197" electricity_abs="0"/>
    </tripinfo>
    <tripinfo id="f_0_0.6" depart="29.00" departLane="A2B2_0" departPos="5.10" departSpeed="0.00" departDelay="0.00" arrival="189.00" arrivalLane="C2D2_0" arrivalPos="492.80" arrivalSpeed="11.76" duration="160.00" routeLength="1495.00" waitingTime="16.00" waitingCount="1" stopTime="0.00" timeLoss="38.10" rerouteNo="0" devices="tripinfo_f_0_0.6 emissions_f_0_0.6" vType="DEFAULT_VEHTYPE" speedFactor="0.89" vaporized="">
        <emissions CO_abs="7087.175995" CO2_abs="380892.978492" HC_abs="40.952232" PMx_abs="5.812196" NOx_abs="149.050377" fuel_abs="121489.248884" electricity_abs="0"/>
    </tripinfo>
    <tripinfo id="f_0_0.7" depart="34.00" departLane="A2B2_0" departPos="5.10" departSpeed="0.00" departDelay="0.00" arrival="191.00" arrivalLane="C2D2_0" arrivalPos="492.80" arrivalSpeed="11.85" duration="157.00" routeLength="1495.00" waitingTime="14.00" waitingCount="1" stopTime="0.00" timeLoss="30.91" rerouteNo="0" devices="tripinfo_f_0_0.7 emissions_f_0_0.7" vType="DEFAULT_VEHTYPE" speedFactor="0.86" vaporized="">
        <emissions CO_abs="6759.832582" CO2_abs="378975.578367" HC_abs="39.328692" PMx_abs="5.758078" NOx_abs="147.964505" fuel_abs="120877.528271" electricity_abs="0"/>
    </tripinfo>
    <tripinfo id="f_0_0.8" depart="41.00" departLane="A2B2_0" departPos="5.10" departSpeed="0.00" departDelay="0.00" arrival="193.00" arrivalLane="C2D2_0" arrivalPos="492.80" arrivalSpeed="15.14" duration="152.00" routeLength="1495.00" waitingTime="18.00" waitingCount="2" stopTime="0.00" timeLoss="52.42" rerouteNo="0" devices="tripinfo_f_0_0.8 emissions_f_0_0.8" vType="DEFAULT_VEHTYPE" speedFactor="1.09" vaporized="">
        <emissions CO_abs="8663.461122" CO2_abs="440712.555658" HC_abs="49.197697" PMx_abs="7.554158" NOx_abs="176.495434" fuel_abs="140568.576816" electricity_abs="0"/>
    </tripinfo>
    <tripinfo id="f_0_0.9" depart="44.00" departLane="A2B2_0" departPos="5.10" departSpeed="0.00" departDelay="0.00" arrival="194.00" arrivalLane="C2D2_0" arrivalPos="492.80" arrivalSpeed="14.00" duration="150.00" routeLength="1495.00" waitingTime="18.00" waitingCount="2" stopTime="0.00" timeLoss="47.17" rerouteNo="0" devices="tripinfo_f_0_0.9 emissions_f_0_0.9" vType="DEFAULT_VEHTYPE" speedFactor="1.05" vaporized="">
        <emissions CO_abs="8266.370717" CO2_abs="432213.909975" HC_abs="47.296425" PMx_abs="7.391165" NOx_abs="173.390403" fuel_abs="137857.740787" electricity_abs="0"/>
    </tripinfo>
    <tripinfo id="f_0_1.4" depart="51.00" departLane="C4C3_0" departPos="5.10" departSpeed="0.00" departDelay="0.00" arrival="199.00" arrivalLane="C2C1_0" arrivalPos="492.80" arrivalSpeed="11.94" duration="148.00" routeLength="1495.00" waitingTime="10.00" waitingCount="1" stopTime="0.00" timeLoss="24.59" rerouteNo="0" devices="tripinfo_f_0_1.4 emissions_f_0_1.4" vType="DEFAULT_VEHTYPE" speedFactor="0.88" vaporized="">
        <emissions CO_abs="5721.073527" CO2_abs="354271.383216" HC_abs="34.091767" PMx_abs="5.235067" NOx_abs="137.098820" fuel_abs="112997.715929" electricity_abs="0"/>
    </tripinfo>
    <tripinfo id="f_0_1.5" depart="56.00" departLane="C4C3_0" departPos="5.10" departSpeed="0.00" departDelay="0.00" arrival="200.00" arrivalLane="C2C1_0" arrivalPos="492.80" arrivalSpeed="12.68" duration="144.00" routeLength="1495.00" waitingTime="9.00" waitingCount="1" stopTime="0.00" timeLoss="29.56" rerouteNo="0" devices="tripinfo_f_0_1.5 emissions_f_0_1.5" vType="DEFAULT_VEHTYPE" speedFactor="0.94" vaporized="">
        <emissions CO_abs="6088.901706" CO2_abs="373320.449847" HC_abs="36.117995" PMx_abs="5.956292" NOx_abs="147.170381" fuel_abs="119073.096950" electricity_abs="0"/>
    </tripinfo>
    <tripinfo id="f_0_1.6" depart="59.00" departLane="C4C3_0" departPos="5.10" departSpeed="0.00" departDelay="1.00" arrival="202.00" arrivalLane="C2C1_0" arrivalPos="492.80" arrivalSpeed="12.25" duration="143.00" routeLength="1495.00" waitingTime="8.00" waitingCount="1" stopTime="0.00" timeLoss="27.74" rerouteNo="0" devices="tripinfo_f_0_1.6 emissions_f_0_1.6" vType="DEFAULT_VEHTYPE" speedFactor="0.94" vaporized="">
        <emissions CO_abs="5535.572604" CO2_abs="358538.411242" HC_abs="33.079753" PMx_abs="5.368143" NOx_abs="138.470402" fuel_abs="114358.496331" electricity_abs="0"/>
    </tripinfo>
    <tripinfo id="f_0_3.0" depart="80.00" departLane="C0C1_0" departPos="5.10" departSpeed="0.00" departDelay="0.00" arrival="203.00" arrivalLane="C2C3_0" arrivalPos="492.80" arrivalSpeed="12.70" duration="123.00" routeLength="1495.00" waitingTime="0.00" waitingCount="0" stopTime="0.00" timeLoss="8.80" rerouteNo="0" devices="tripinfo_f_0_3.0 emissions_f_0_3.0" vType="DEFAULT_VEHTYPE" speedFactor="0.95" vaporized="">
        <emissions CO_abs="2492.066666" CO2_abs="298300.879802" HC_abs="17.698164" PMx_abs="3.605102" NOx_abs="108.122227" fuel_abs="95145.012470" electricity_abs="0"/>
    </tripinfo>
    <tripinfo id="f_0_1.7" depart="62.00" departLane="C4C3_0" departPos="5.10" departSpeed="0.00" departDelay="2.00" arrival="204.00" arrivalLane="C2C1_0" arrivalPos="492.80" arrivalSpeed="13.92" duration="142.00" routeLength="1495.00" waitingTime="8.00" waitingCount="2" stopTime="0.00" timeLoss="35.61" rerouteNo="0" devices="tripinfo_f_0_1.7 emissions_f_0_1.7" vType="DEFAULT_VEHTYPE" speedFactor="1.02" vaporized="">
        <emissions CO_abs="6917.767319" CO2_abs="413582.387685" HC_abs="40.611264" PMx_abs="6.830162" NOx_abs="164.173990" fuel_abs="131914.733330" electricity_abs="0"/>
    </tripinfo>
    <tripinfo id="f_0_3.1" depart="85.00" departLane="C0C1_0" departPos="5.10" departSpeed="0.00" departDelay="0.00" arrival="204.00" arrivalLane="C2C3_0" arrivalPos="492.80" arrivalSpeed="15.05" duration="119.00" routeLength="1495.00" waitingTime="0.00" waitingCount="0" stopTime="0.00" timeLoss="27.49" rerouteNo="0" devices="tripinfo_f_0_3.1 emissions_f_0_3.1" vType="DEFAULT_VEHTYPE" speedFactor="1.18" vaporized="">
        <emissions CO_abs="3445.414227" CO2_abs="328716.883625" HC_abs="22.841821" PMx_abs="4.906417" NOx_abs="125.942828" fuel_abs="104845.705706" electricity_abs="0"/>
    </tripinfo>
    <tripinfo id="f_0_3.2" depart="88.00" departLane="C0C1_0" departPos="5.10" departSpeed="0.00" departDelay="2.00" arrival="206.00" arrivalLane="C2C3_0" arrivalPos="492.80" arrivalSpeed="14.97" duration="118.00" routeLength="1495.00" waitingTime="0.00" waitingCount="0" stopTime="0.00" timeLoss="24.25" rerouteNo="0" devices="tripinfo_f_0_3.2 emissions_f_0_3.2" vType="DEFAULT_VEHTYPE" speedFactor="1.15" vaporized="">
        <emissions CO_abs="3755.422053" CO2_abs="330757.301227" HC_abs="24.331141" PMx_abs="5.325703" NOx_abs="129.512692" fuel_abs="105496.234091" electricity_abs="0"/>
    </tripinfo>
    <tripinfo id="f_0_1.8" depart="73.00" departLane="C4C3_0" departPos="5.10" departSpeed="0.00" departDelay="0.00" arrival="207.00" arrivalLane="C2C1_0" arrivalPos="492.80" arrivalSpeed="11.28" duration="134.00" routeLength="1495.00" waitingTime="0.00" waitingCount="0" stopTime="0.00" timeLoss="10.59" rerouteNo="0" devices="tripinfo_f_0_1.8 emissions_f_0_1.8" vType="DEFAULT_VEHTYPE" speedFactor="0.87" vaporized="">
        <emissions CO_abs="3048.744400" CO2_abs="302276.219579" HC_abs="20.499993" PMx_abs="3.727059" NOx_abs="111.310245" fuel_abs="96413.191959" electricity_abs="0"/>
    </tripinfo>
    <tripinfo id="f_0_3.3" depart="91.00" departLane="C0C1_0" departPos="5.10" departSpeed="0.00" departDelay="4.00" arrival="208.00" arrivalLane="C2C3_0" arrivalPos="492.80" arrivalSpeed="16.19" duration="117.00" routeLength="1495.00" waitingTime="0.00" waitingCount="0" stopTime="0.00" timeLoss="24.17" rerouteNo="0" devices="tripinfo_f_0_3.3 emissions_f_0_3.3" vType="DEFAULT_VEHTYPE" speedFactor="1.17" vaporized="">
        <emissions CO_abs="3859.484997" CO2_abs="350222.449360" HC_abs="25.148360" PMx_abs="5.550914" NOx_abs="135.934278" fuel_abs="111704.737595" electricity_abs="0"/>
    </tripinfo>
    <tripinfo id="f_0_1.9" depart="80.00" departLane="C4C3_0" departPos="5.10" departSpeed="0.00" departDelay="0.00" arrival="209.00" arrivalLane="C2C1_0" arrivalPos="492.80" arrivalSpeed="12.52" duration="129.00" routeLength="1495.00" waitingTime="0.00" waitingCount="0" stopTime="0.00" timeLoss="11.30" rerouteNo="0" devices="tripinfo_f_0_1.9 emissions_f_0_1.9" vType="DEFAULT_VEHTYPE" speedFactor="0.92" vaporized="">
        <emissions CO_abs="3280.254824" CO2_abs="316955.645239" HC_abs="21.901654" PMx_abs="4.251232" NOx_abs="118.897179" fuel_abs="101094.929446" electricity_abs="0"/>
    </tripinfo>
    <tripinfo id="f_0_1.10" depart="85.00" departLane="C4C3_0" departPos="5.10" departSpeed="0.00" departDelay="0.00" arrival="211.00" arrivalLane="C2C1_0" arrivalPos="492.80" arrivalSpeed="12.69" duration="126.00" routeLength="1495.00" waitingTime="0.00" waitingCount="0" stopTime="0.00" timeLoss="9.92" rerouteNo="0" devices="tripinfo_f_0_1.10 emissions_f_0_1.10" vType="DEFAULT_VEHTYPE" speedFactor="0.93" vaporized="">
        <emissions CO_abs="2908.102237" CO2_abs="304906.468657" HC_abs="19.760496" PMx_abs="3.932133" NOx_abs="112.694585" fuel_abs="97251.837058" electricity_abs="0"/>
    </tripinfo>
    <tripinfo id="f_0_3.4" depart="94.00" departLane="C0C1_0" departPos="5.10" departSpeed="0.00" departDelay="5.00" arrival="211.00" arrivalLane="C2C3_0" arrivalPos="492.80" arrivalSpeed="12.71" duration="117.00" routeLength="1495.00" waitingTime="0.00" waitingCount="0" stopTime="0.00" timeLoss="8.03" rerouteNo="0" devices="tripinfo_f_0_3.4 emissions_f_0_3.4" vType="DEFAULT_VEHTYPE" speedFactor="0.99" vaporized="">
        <emissions CO_abs="2309.470418" CO2_abs="279480.591527" HC_abs="16.307393" PMx_abs="3.577071" NOx_abs="101.960944" fuel_abs="89141.917608" electricity_abs="0"/>
    </tripinfo>
    <tripinfo id="f_0_3.5" depart="96.00" departLane="C0C1_0" departPos="5.10" departSpeed="0.00" departDelay="1.00" arrival="212.00" arrivalLane="C2C3_0" arrivalPos="492.80" arrivalSpeed="14.95" duration="116.00" routeLength="1495.00" waitingTime="0.00" waitingCount="0" stopTime="0.00" timeLoss="24.63" rerouteNo="0" devices="tripinfo_f_0_3.5 emissions_f_0_3.5" vType="DEFAULT_VEHTYPE" speedFactor="1.18" vaporized="">
        <emissions CO_abs="3304.135174" CO2_abs="314611.142556" HC_abs="21.726479" PMx_abs="4.694523" NOx_abs="120.017691" fuel_abs="100346.619821" electricity_abs="0"/>
    </tripinfo>
    <tripinfo id="f_0_0.10" depart="59.00" departLane="A2B2_0" departPos="5.10" departSpeed="0.00" departDelay="0.00" arrival="213.00" arrivalLane="C2D2_0" arrivalPos="492.80" arrivalSpeed="16.00" duration="154.00" routeLength="1495.00" waitingTime="34.00" waitingCount="2" stopTime="0.00" timeLoss="60.16" rerouteNo="0" devices="tripinfo_f_0_0.10 emissions_f_0_0.10" vType="DEFAULT_VEHTYPE" speedFactor="1.16" vaporized="">
        <emissions CO_abs="10544.065009" CO2_abs="463020.926314" HC_abs="58.076151" PMx_abs="8.288178" NOx_abs="186.326119" fuel_abs="147684.556450" electricity_abs="0"/>
    </tripinfo>
    <tripinfo id="f_0_1.11" depart="88.00" departLane="C4C3_0" departPos="5.10" departSpeed="0.00" departDelay="1.00" arrival="213.00" arrivalLane="C2C1_0" arrivalPos="492.80" arrivalSpeed="12.73" duration="125.00" routeLength="1495.00" waitingTime="0.00" waitingCount="0" stopTime="0.00" timeLoss="17.20" rerouteNo="0" devices="tripinfo_f_0_1.11 emissions_f_0_1.11" vType="DEFAULT_VEHTYPE" speedFactor="1.01" vaporized="">
        <emissions CO_abs="3807.179592" CO2_abs="346030.019768" HC_abs="24.950981" PMx_abs="5.209121" NOx_abs="133.340882" fuel_abs="110367.882126" electricity_abs="0"/>
    </tripinfo>
    <tripinfo id="f_0_1.12" depart="91.00" departLane="C4C3_0" departPos="5.10" departSpeed="0.00" departDelay="1.00" arrival="214.00" arrivalLane="C2C1_0" arrivalPos="492.80" arrivalSpeed="14.05" duration="123.00" routeLength="1495.00" waitingTime="0.00" waitingCount="0" stopTime="0.00" timeLoss="17.29" rerouteNo="0" devices="tripinfo_f_0_1.12 emissions_f_0_1.12" vType="DEFAULT_VEHTYPE" speedFactor="1.02" vaporized="">
        <emissions CO_abs="3878.514148" CO2_abs="343078.119010" HC_abs="25.276277" PMx_abs="5.292800" NOx_abs="133.171534" fuel_abs="109426.259178" electricity_abs="0"/>
    </tripinfo>
    <tripinfo id="f_0_2.4" depart="97.00" departLane="E2D2_0" departPos="5.10" departSpeed="0.00" departDelay="0.00" arrival="217.00" arrivalLane="C2B2_0" arrivalPos="492.80" arrivalSpeed="13.63" duration="120.00" routeLength="1495.00" waitingTime="0.00" waitingCount="0" stopTime="0.00" timeLoss="14.72" rerouteNo="0" devices="tripinfo_f_0_2.4 emissions_f_0_2.4" vType="DEFAULT_VEHTYPE" speedFactor="1.03" vaporized="">
        <emissions CO_abs="3473.806084" CO2_abs="323837.099012" HC_abs="22.447241" PMx_abs="4.656003" NOx_abs="121.954085" fuel_abs="103289.526878" electricity_abs="0"/>
    </tripinfo>
    <tripinfo id="f_0_0.11" depart="71.00" departLane="A2B2_0" departPos="5.10" departSpeed="0.00" departDelay="0.00" arrival="225.00" arrivalLane="C2D2_0" arrivalPos="492.80" arrivalSpeed="11.23" duration="154.00" routeLength="1495.00" waitingTime="19.00" waitingCount="1" stopTime="0.00" timeLoss="32.17" rerouteNo="0" devices="tripinfo_f_0_0.11 emissions_f_0_0.11" vType="DEFAULT_VEHTYPE" speedFactor="0.89" vaporized="">
        <emissions CO_abs="6788.150299" CO2_abs="372048.529059" HC_abs="39.194730" PMx_abs="5.527043" NOx_abs="143.867132" fuel_abs="118668.350563" electricity_abs="0"/>
    </tripinfo>
    <tripinfo id="f_0_0.12" depart="74.00" departLane="A2B2_0" departPos="5.10" departSpeed="0.00" departDelay="2.00" arrival="230.00" arrivalLane="C2D2_0" arrivalPos="492.80" arrivalSpeed="10.84" duration="156.00" routeLength="1495.00" waitingTime="9.00" waitingCount="1" stopTime="0.00" timeLoss="24.96" rerouteNo="0" devices="tripinfo_f_0_0.12 emissions_f_0_0.12" vType="DEFAULT_VEHTYPE" speedFactor="0.83" vaporized="">
        <emissions CO_abs="5770.193762" CO2_abs="354110.679870" HC_abs="34.304799" PMx_abs="4.979014" NOx_abs="135.856983" fuel_abs="112946.753827" electricity_abs="0"/>
    </tripinfo>
    <tripinfo id="f_0_0.13" depart="81.00" departLane="A2B2_0" departPos="5.10" departSpeed="0.00" departDelay="0.00" arrival="231.00" arrivalLane="C2D2_0" arrivalPos="492.80" arrivalSpeed="12.29" duration="150.00" routeLength="1495.00" waitingTime="8.00" waitingCount="1" stopTime="0.00" timeLoss="54.87" rerouteNo="0" devices="tripinfo_f_0_0.13 emissions_f_0_0.13" vType="DEFAULT_VEHTYPE" speedFactor="1.13" vaporized="">
        <emissions CO_abs="6531.896946" CO2_abs="390822.337667" HC_abs="38.726348" PMx_abs="6.418122" NOx_abs="155.951734" fuel_abs="124655.292149" electricity_abs="0"/>
    </tripinfo>
    <tripinfo id="f_0_0.14" depart="95.00" departLane="A2B2_0" departPos="5.10" departSpeed="0.00" departDelay="0.00" arrival="233.00" arrivalLane="C2D2_0" arrivalPos="492.80" arrivalSpeed="12.43" duration="138.00" routeLength="1495.00" waitingTime="5.00" waitingCount="1" stopTime="0.00" timeLoss="27.21" rerouteNo="0" devices="tripinfo_f_0_0.14 emissions_f_0_0.14" vType="DEFAULT_VEHTYPE" speedFactor="0.97" vaporized="">
        <emissions CO_abs="5418.652910" CO2_abs="366668.012666" HC_abs="32.726824" PMx_abs="5.730114" NOx_abs="143.358846" fuel_abs="116951.025041" electricity_abs="0"/>
    </tripinfo>
    <tripinfo id="f_0_1.13" depart="96.00" departLane="C4C3_0" departPos="5.10" departSpeed="0.00" departDelay="0.00" arrival="236.00" arrivalLane="C2C1_0" arrivalPos="492.80" arrivalSpeed="12.34" duration="140.00" routeLength="1495.00" waitingTime="6.00" waitingCount="1" stopTime="0.00" timeLoss="20.33" rerouteNo="0" devices="tripinfo_f_0_1.13 emissions_f_0_1.13" vType="DEFAULT_VEHTYPE" speedFactor="0.90" vaporized="">
        <emissions CO_abs="4476.885122" CO2_abs="337625.321778" HC_abs="27.776617" PMx_abs="4.643302" NOx_abs="127.566118" fuel_abs="107688.145519" electricity_abs="0"/>
    </tripinfo>
    <tripinfo id="f_0_0.15" depart="98.00" departLane="A2B2_0" departPos="5.10" departSpeed="0.00" departDelay="2.00" arrival="267.00" arrivalLane="C2D2_0" arrivalPos="492.80" arrivalSpeed="14.84" duration="169.00" routeLength="1495.00" waitingTime="43.00" waitingCount="2" stopTime="0.00" timeLoss="70.86" rerouteNo="0" devices="tripinfo_f_0_0.15 emissions_f_0_0.15" vType="DEFAULT_VEHTYPE" speedFactor="1.10" vaporized="">
        <emissions CO_abs="11902.276683" CO2_abs="470915.317754" HC_abs="64.582331" PMx_abs="8.490456" NOx_abs="191.141589" fuel_abs="150203.210664" electricity_abs="0"/>
    </tripinfo>
    <tripinfo id="f_1_2.0" depart="153.00" departLane="E2D2_0" departPos="5.10" departSpeed="0.00" departDelay="0.00" arrival="268.00" arrivalLane="C2B2_0" arrivalPos="492.80" arrivalSpeed="14.33" duration="115.00" routeLength="1495.00" waitingTime="1.00" waitingCount="1" stopTime="0.00" timeLoss="16.34" rerouteNo="0" devices="tripinfo_f_1_2.0 emissions_f_1_2.0" vType="DEFAULT_VEHTYPE" speedFactor="1.09" vaporized="">
        <emissions CO_abs="3666.071478" CO2_abs="325529.901374" HC_abs="23.364674" PMx_abs="4.736456" NOx_abs="121.993380" fuel_abs="103829.536759" electricity_abs="0"/>
    </tripinfo>
    <tripinfo id="f_1_0.0" depart="155.00" departLane="A2B2_0" departPos="5.10" departSpeed="0.00" departDelay="0.00" arrival="270.00" arrivalLane="C2D2_0" arrivalPos="492.80" arrivalSpeed="13.24" duration="115.00" routeLength="1495.00" waitingTime="0.00" waitingCount="0" stopTime="0.00" timeLoss="11.29" rerouteNo="0" devices="tripinfo_f_1_0.0 emissions_f_1_0.0" vType="DEFAULT_VEHTYPE" speedFactor="1.04" vaporized="">
        <emissions CO_abs="2899.827947" CO2_abs="310646.803194" HC_abs="19.604198" PMx_abs="4.303391" NOx_abs="115.390785" fuel_abs="99082.349588" electricity_abs="0"/>
    </tripinfo>
    <tripinfo id="f_1_0.1" depart="162.00" departLane="A2B2_0" departPos="5.10" departSpeed="0.00" departDelay="0.00" arrival="272.00" arrivalLane="C2D2_0" arrivalPos="492.80" arrivalSpeed="13.92" duration="110.00" routeLength="1495.00" waitingTime="0.00" waitingCount="0" stopTime="0.00" timeLoss="10.66" rerouteNo="0" devices="tripinfo_f_1_0.1 emissions_f_1_0.1" vType="DEFAULT_VEHTYPE" speedFactor="1.09" vaporized="">
        <emissions CO_abs="2942.698547" CO2_abs="313873.930150" HC_abs="19.939413" PMx_abs="4.565036" NOx_abs="117.785632" fuel_abs="100111.432107" electricity_abs="0"/>
    </tripinfo>
    <tripinfo id="f_1_3.0" depart="152.00" departLane="C0C1_0" departPos="5.10" departSpeed="0.00" departDelay="0.00" arrival="286.00" arrivalLane="C2C3_0" arrivalPos="492.80" arrivalSpeed="12.88" duration="134.00" routeLength="1495.00" waitingTime="9.00" waitingCount="1" stopTime="0.00" timeLoss="21.31" rerouteNo="0" devices="tripinfo_f_1_3.0 emissions_f_1_3.0" vType="DEFAULT_VEHTYPE" speedFactor="0.96" vaporized="">
        <emissions CO_abs="4531.495933" CO2_abs="333457.597644" HC_abs="27.681523" PMx_abs="4.620862" NOx_abs="125.325991" fuel_abs="106358.860888" electricity_abs="0"/>
    </tripinfo>
    <tripinfo id="f_1_3.1" depart="160.00" departLane="C0C1_0" departPos="5.10" departSpeed="0.00" departDelay="0.00" arrival="288.00" arrivalLane="C2C3_0" arrivalPos="492.80" arrivalSpeed="13.73" duration="128.00" routeLength="1495.00" waitingTime="8.00" waitingCount="1" stopTime="0.00" timeLoss="24.23" rerouteNo="0" devices="tripinfo_f_1_3.1 emissions_f_1_3.1" vType="DEFAULT_VEHTYPE" speedFactor="1.04" vaporized="">
        <emissions CO_abs="4894.462722" CO2_abs="345179.974422" HC_abs="29.526159" PMx_abs="5.333264" NOx_abs="133.279336" fuel_abs="110097.249098" electricity_abs="0"/>
    </tripinfo>
    <tripinfo id="f_1_3.2" depart="163.00" departLane="C0C1_0" departPos="5.10" departSpeed="0.00" departDelay="1.00" arrival="290.00" arrivalLane="C2C3_0" arrivalPos="492.80" arrivalSpeed="13.76" duration="127.00" routeLength="1495.00" waitingTime="2.00" waitingCount="1" stopTime="0.00" timeLoss="18.34" rerouteNo="0" devices="tripinfo_f_1_3.2 emissions_f_1_3.2" vType="DEFAULT_VEHTYPE" speedFactor="1.00" vaporized="">
        <emissions CO_abs="3989.166138" CO2_abs="337885.308505" HC_abs="25.208371" PMx_abs="4.793421" NOx_abs="127.542376" fuel_abs="107770.579854" electricity_abs="0"/>
    </tripinfo>
    <tripinfo id="f_1_3.3" depart="166.00" departLane="C0C1_0" departPos="5.10" departSpeed="0.00" departDelay="3.00" arrival="299.00" arrivalLane="C2C3_0" arrivalPos="492.80" arrivalSpeed="11.59" duration="133.00" routeLength="1495.00" waitingTime="0.00" waitingCount="0" stopTime="0.00" timeLoss="9.79" rerouteNo="0" devices="tripinfo_f_1_3.3 emissions_f_1_3.3" vType="DEFAULT_VEHTYPE" speedFactor="0.88" vaporized="">