<?xml version="1.0" encoding="UTF-8"?>

<!-- generated on 2024-08-22 13:37:03 by Eclipse SUMO sumo Version 1.17.0
<configuration xmlns:xsi="http://www.w3.org/2001/XMLSchema-instance" xsi:noNamespaceSchemaLocation="http://sumo.dlr.de/xsd/sumoConfiguration.xsd">

    <input>
        <net-file value="single_neat.net.xml"/>
        <route-files value="single_4.rou.xml"/>
    </input>

    <output>
        <tripinfo-output value="emissions_test\z14_data_VehicleNumberAndHaltingNumber_stepThreshold_4000_gen_80_4emissionssingle.xml"/>
    </output>

    <processing>
        <time-to-teleport value="-1"/>
    </processing>

    <report>
        <no-warnings value="true"/>
    </report>

    <emissions>
        <device.emissions.probability value="1.0"/>
    </emissions>

    <traci_server>
        <remote-port value="58240"/>
    </traci_server>

</configuration>
-->

<tripinfos xmlns:xsi="http://www.w3.org/2001/XMLSchema-instance" xsi:noNamespaceSchemaLocation="http://sumo.dlr.de/xsd/tripinfo_file.xsd">
    <tripinfo id="f_0_0.0" depart="2.00" departLane="A2B2_0" departPos="5.10" departSpeed="0.00" departDelay="0.00" arrival="122.00" arrivalLane="C2D2_0" arrivalPos="492.80" arrivalSpeed="14.37" duration="120.00" routeLength="1495.00" waitingTime="4.00" waitingCount="1" stopTime="0.00" timeLoss="17.74" rerouteNo="0" devices="tripinfo_f_0_0.0 emissions_f_0_0.0" vType="DEFAULT_VEHTYPE" speedFactor="1.06" vaporized="">
        <emissions CO_abs="4096.065476" CO2_abs="338483.311216" HC_abs="25.867463" PMx_abs="5.038009" NOx_abs="128.522300" fuel_abs="107961.154891" electricity_abs="0"/>
    </tripinfo>
    <tripinfo id="f_0_0.1" depart="5.00" departLane="A2B2_0" departPos="5.10" departSpeed="0.00" departDelay="0.00" arrival="129.00" arrivalLane="C2D2_0" arrivalPos="492.80" arrivalSpeed="12.87" duration="124.00" routeLength="1495.00" waitingTime="0.00" waitingCount="0" stopTime="0.00" timeLoss="8.47" rerouteNo="0" devices="tripinfo_f_0_0.1 emissions_f_0_0.1" vType="DEFAULT_VEHTYPE" speedFactor="0.94" vaporized="">
        <emissions CO_abs="2359.260919" CO2_abs="290677.926272" HC_abs="16.666536" PMx_abs="3.356401" NOx_abs="104.041881" fuel_abs="92713.766121" electricity_abs="0"/>
    </tripinfo>
    <tripinfo id="f_0_0.2" depart="8.00" departLane="A2B2_0" departPos="5.10" departSpeed="0.00" departDelay="1.00" arrival="130.00" arrivalLane="C2D2_0" arrivalPos="492.80" arrivalSpeed="13.92" duration="122.00" routeLength="1495.00" waitingTime="0.00" waitingCount="0" stopTime="0.00" timeLoss="15.31" rerouteNo="0" devices="tripinfo_f_0_0.2 emissions_f_0_0.2" vType="DEFAULT_VEHTYPE" speedFactor="1.01" vaporized="">
        <emissions CO_abs="3384.276746" CO2_abs="322706.491981" HC_abs="22.481439" PMx_abs="4.754615" NOx_abs="123.315180" fuel_abs="102928.756431" electricity_abs="0"/>
    </tripinfo>
    <tripinfo id="f_0_0.3" depart="11.00" departLane="A2B2_0" departPos="5.10" departSpeed="0.00" departDelay="1.00" arrival="132.00" arrivalLane="C2D2_0" arrivalPos="492.80" arrivalSpeed="13.95" duration="121.00" routeLength="1495.00" waitingTime="0.00" waitingCount="0" stopTime="0.00" timeLoss="21.22" rerouteNo="0" devices="tripinfo_f_0_0.3 emissions_f_0_0.3" vType="DEFAULT_VEHTYPE" speedFactor="1.08" vaporized="">
        <emissions CO_abs="4127.258305" CO2_abs="357101.112230" HC_abs="26.738952" PMx_abs="5.745480" NOx_abs="140.284693" fuel_abs="113898.720328" electricity_abs="0"/>
    </tripinfo>
    <tripinfo id="f_0_0.4" depart="16.00" departLane="A2B2_0" departPos="5.10" departSpeed="0.00" departDelay="0.00" arrival="134.00" arrivalLane="C2D2_0" arrivalPos="492.80" arrivalSpeed="14.24" duration="118.00" routeLength="1495.00" waitingTime="0.00" waitingCount="0" stopTime="0.00" timeLoss="12.73" rerouteNo="0" devices="tripinfo_f_0_0.4 emissions_f_0_0.4" vType="DEFAULT_VEHTYPE" speedFactor="1.03" vaporized="">
        <emissions CO_abs="3186.291103" CO2_abs="325801.016890" HC_abs="21.490816" PMx_abs="4.705901" NOx_abs="123.446422" fuel_abs="103915.722966" electricity_abs="0"/>
    </tripinfo>
    <tripinfo id="f_0_1.0" depart="24.00" departLane="C4C3_0" departPos="5.10" departSpeed="0.00" departDelay="0.00" arrival="135.00" arrivalLane="C2C1_0" arrivalPos="492.80" arrivalSpeed="14.35" duration="111.00" routeLength="1495.00" waitingTime="0.00" waitingCount="0" stopTime="0.00" timeLoss="7.92" rerouteNo="0" devices="tripinfo_f_0_1.0 emissions_f_0_1.0" vType="DEFAULT_VEHTYPE" speedFactor="1.05" vaporized="">
        <emissions CO_abs="2516.387060" CO2_abs="294587.473524" HC_abs="17.549747" PMx_abs="4.028229" NOx_abs="109.057612" fuel_abs="93960.081588" electricity_abs="0"/>
    </tripinfo>
    <tripinfo id="f_0_1.1" depart="27.00" departLane="C4C3_0" departPos="5.10" departSpeed="0.00" departDelay="1.00" arrival="151.00" arrivalLane="C2C1_0" arrivalPos="492.80" arrivalSpeed="12.10" duration="124.00" routeLength="1495.00" waitingTime="0.00" waitingCount="0" stopTime="0.00" timeLoss="9.05" rerouteNo="0" devices="tripinfo_f_0_1.1 emissions_f_0_1.1" vType="DEFAULT_VEHTYPE" speedFactor="0.94" vaporized="">
        <emissions CO_abs="2566.894793" CO2_abs="287627.343911" HC_abs="17.797138" PMx_abs="3.579664" NOx_abs="105.259721" fuel_abs="91740.592404" electricity_abs="0"/>
    </tripinfo>
    <tripinfo id="f_0_2.0" depart="40.00" departLane="E2D2_0" departPos="5.10" departSpeed="0.00" departDelay="0.00" arrival="164.00" arrivalLane="C2B2_0" arrivalPos="492.80" arrivalSpeed="12.34" duration="124.00" routeLength="1495.00" waitingTime="0.00" waitingCount="0" stopTime="0.00" timeLoss="8.40" rerouteNo="0" devices="tripinfo_f_0_2.0 emissions_f_0_2.0" vType="DEFAULT_VEHTYPE" speedFactor="0.94" vaporized="">
        <emissions CO_abs="2429.345553" CO2_abs="288728.174594" HC_abs="17.027464" PMx_abs="3.418074" NOx_abs="104.247987" fuel_abs="92091.809925" electricity_abs="0"/>
    </tripinfo>
    <tripinfo id="f_0_2.1" depart="43.00" departLane="E2D2_0" departPos="5.10" departSpeed="0.00" departDelay="1.00" arrival="165.00" arrivalLane="C2B2_0" arrivalPos="492.80" arrivalSpeed="13.28" duration="122.00" routeLength="1495.00" waitingTime="0.00" waitingCount="0" stopTime="0.00" timeLoss="15.44" rerouteNo="0" devices="tripinfo_f_0_2.1 emissions_f_0_2.1" vType="DEFAULT_VEHTYPE" speedFactor="1.01" vaporized="">
        <emissions CO_abs="3274.967361" CO2_abs="310329.027245" HC_abs="21.754585" PMx_abs="4.547694" NOx_abs="118.694949" fuel_abs="98980.928187" electricity_abs="0"/>
    </tripinfo>
    <tripinfo id="f_0_0.5" depart="20.00" departLane="A2B2_0" departPos="5.10" departSpeed="0.00" departDelay="0.00" arrival="168.00" arrivalLane="C2D2_0" arrivalPos="492.80" arrivalSpeed="11.26" duration="148.00" routeLength="1495.00" waitingTime="4.00" waitingCount="1" stopTime="0.00" timeLoss="17.88" rerouteNo="0" devices="tripinfo_f_0_0.5 emissions_f_0_0.5" vType="DEFAULT_VEHTYPE" speedFactor="0.83" vaporized="">
        <emissions CO_abs="4684.560860" CO2_abs="331556.749563" HC_abs="28.844539" PMx_abs="4.510025" NOx_abs="125.937933" fuel_abs="105752.726901" electricity_abs="0"/>
    </tripinfo>
    <tripinfo id="f_0_0.6" depart="25.00" departLane="A2B2_0" departPos="5.10" departSpeed="0.00" departDelay="0.00" arrival="170.00" arrivalLane="C2D2_0" arrivalPos="492.80" arrivalSpeed="11.63" duration="145.00" routeLength="1495.00" waitingTime="2.00" waitingCount="1" stopTime="0.00" timeLoss="22.67" rerouteNo="0" devices="tripinfo_f_0_0.6 emissions_f_0_0.6" vType="DEFAULT_VEHTYPE" speedFactor="0.89" vaporized="">
        <emissions CO_abs="4835.372724" CO2_abs="338034.200259" HC_abs="29.693947" PMx_abs="4.964596" NOx_abs="130.863229" fuel_abs="107818.363439" electricity_abs="0"/>
    </tripinfo>
    <tripinfo id="f_0_0.7" depart="29.00" departLane="A2B2_0" departPos="5.10" departSpeed="0.00" departDelay="0.00" arrival="171.00" arrivalLane="C2D2_0" arrivalPos="492.80" arrivalSpeed="14.41" duration="142.00" routeLength="1495.00" waitingTime="2.00" waitingCount="1" stopTime="0.00" timeLoss="43.10" rerouteNo="0" devices="tripinfo_f_0_0.7 emissions_f_0_0.7" vType="DEFAULT_VEHTYPE" speedFactor="1.09" vaporized="">
        <emissions CO_abs="5636.032284" CO2_abs="381650.264704" HC_abs="34.406831" PMx_abs="6.129386" NOx_abs="151.507469" fuel_abs="121729.474642" electricity_abs="0"/>
    </tripinfo>
    <tripinfo id="f_0_0.8" depart="32.00" departLane="A2B2_0" departPos="5.10" departSpeed="0.00" departDelay="0.00" arrival="173.00" arrivalLane="C2D2_0" arrivalPos="492.80" arrivalSpeed="14.64" duration="141.00" routeLength="1495.00" waitingTime="2.00" waitingCount="1" stopTime="0.00" timeLoss="44.64" rerouteNo="0" devices="tripinfo_f_0_0.8 emissions_f_0_0.8" vType="DEFAULT_VEHTYPE" speedFactor="1.12" vaporized="">
        <emissions CO_abs="5770.287771" CO2_abs="400797.576856" HC_abs="35.455899" PMx_abs="6.675145" NOx_abs="160.175952" fuel_abs="127836.282589" electricity_abs="0"/>
    </tripinfo>
    <tripinfo id="f_0_0.9" depart="35.00" departLane="A2B2_0" departPos="5.10" departSpeed="0.00" departDelay="2.00" arrival="175.00" arrivalLane="C2D2_0" arrivalPos="492.80" arrivalSpeed="12.50" duration="140.00" routeLength="1495.00" waitingTime="1.00" waitingCount="1" stopTime="0.00" timeLoss="30.79" rerouteNo="0" devices="tripinfo_f_0_0.9 emissions_f_0_0.9" vType="DEFAULT_VEHTYPE" speedFactor="0.99" vaporized="">
        <emissions CO_abs="5761.135547" CO2_abs="390676.521820" HC_abs="35.262440" PMx_abs="6.683220" NOx_abs="157.789592" fuel_abs="124607.982111" electricity_abs="0"/>
    </tripinfo>
    <tripinfo id="f_0_1.2" depart="30.00" departLane="C4C3_0" departPos="5.10" departSpeed="0.00" departDelay="3.00" arrival="181.00" arrivalLane="C2C1_0" arrivalPos="492.80" arrivalSpeed="11.56" duration="151.00" routeLength="1495.00" waitingTime="11.00" waitingCount="1" stopTime="0.00" timeLoss="24.96" rerouteNo="0" devices="tripinfo_f_0_1.2 emissions_f_0_1.2" vType="DEFAULT_VEHTYPE" speedFactor="0.86" vaporized="">
        <emissions CO_abs="5788.313967" CO2_abs="357694.496575" HC_abs="34.422293" PMx_abs="5.071192" NOx_abs="137.085885" fuel_abs="114089.795629" electricity_abs="0"/>
    </tripinfo>
    <tripinfo id="f_0_1.3" depart="33.00" departLane="C4C3_0" departPos="5.10" departSpeed="0.00" departDelay="4.00" arrival="183.00" arrivalLane="C2C1_0" arrivalPos="492.80" arrivalSpeed="13.65" duration="150.00" routeLength="1495.00" waitingTime="9.00" waitingCount="1" stopTime="0.00" timeLoss="44.41" rerouteNo="0" devices="tripinfo_f_0_1.3 emissions_f_0_1.3" vType="DEFAULT_VEHTYPE" speedFactor="1.03" vaporized="">
        <emissions CO_abs="6287.922725" CO2_abs="382010.568896" HC_abs="37.320393" PMx_abs="6.079103" NOx_abs="150.976653" fuel_abs="121844.914199" electricity_abs="0"/>
    </tripinfo>
    <tripinfo id="f_0_1.4" depart="36.00" departLane="C4C3_0" departPos="5.10" departSpeed="0.00" departDelay="5.00" arrival="184.00" arrivalLane="C2C1_0" arrivalPos="492.80" arrivalSpeed="13.69" duration="148.00" routeLength="1495.00" waitingTime="9.00" waitingCount="1" stopTime="0.00" timeLoss="45.12" rerouteNo="0" devices="tripinfo_f_0_1.4 emissions_f_0_1.4" vType="DEFAULT_VEHTYPE" speedFactor="1.05" vaporized="">
        <emissions CO_abs="7006.485014" CO2_abs="425769.809167" HC_abs="41.632230" PMx_abs="7.068732" NOx_abs="170.196459" fuel_abs="135801.871671" electricity_abs="0"/>
    </tripinfo>
    <tripinfo id="f_0_1.5" depart="42.00" departLane="C4C3_0" departPos="5.10" departSpeed="0.00" departDelay="0.00" arrival="186.00" arrivalLane="C2C1_0" arrivalPos="492.80" arrivalSpeed="13.51" duration="144.00" routeLength="1495.00" waitingTime="8.00" waitingCount="1" stopTime="0.00" timeLoss="38.04" rerouteNo="0" devices="tripinfo_f_0_1.5 emissions_f_0_1.5" vType="DEFAULT_VEHTYPE" speedFactor="1.02" vaporized="">
        <emissions CO_abs="6173.622903" CO2_abs="391365.615527" HC_abs="36.939390" PMx_abs="6.340344" NOx_abs="154.910197" fuel_abs="124828.466401" electricity_abs="0"/>
    </tripinfo>
    <tripinfo id="f_0_1.6" depart="45.00" departLane="C4C3_0" departPos="5.10" departSpeed="0.00" departDelay="0.00" arrival="189.00" arrivalLane="C2C1_0" arrivalPos="492.80" arrivalSpeed="11.05" duration="144.00" routeLength="1495.00" waitingTime="3.00" waitingCount="1" stopTime="0.00" timeLoss="19.82" rerouteNo="0" devices="tripinfo_f_0_1.6 emissions_f_0_1.6" vType="DEFAULT_VEHTYPE" speedFactor="0.87" vaporized="">
        <emissions CO_abs="4688.632497" CO2_abs="338734.478618" HC_abs="29.091689" PMx_abs="4.743779" NOx_abs="129.541125" fuel_abs="108041.888049" electricity_abs="0"/>
    </tripinfo>
    <tripinfo id="f_0_0.10" depart="38.00" departLane="A2B2_0" departPos="5.10" departSpeed="0.00" departDelay="4.00" arrival="191.00" arrivalLane="C2D2_0" arrivalPos="492.80" arrivalSpeed="11.84" duration="153.00" routeLength="1495.00" waitingTime="14.00" waitingCount="2" stopTime="0.00" timeLoss="36.83" rerouteNo="0" devices="tripinfo_f_0_0.10 emissions_f_0_0.10" vType="DEFAULT_VEHTYPE" speedFactor="0.93" vaporized="">
        <emissions CO_abs="6602.932610" CO2_abs="371658.020210" HC_abs="38.237069" PMx_abs="5.694128" NOx_abs="144.495354" fuel_abs="118543.483589" electricity_abs="0"/>
    </tripinfo>
    <tripinfo id="f_0_2.2" depart="46.00" departLane="E2D2_0" departPos="5.10" departSpeed="0.00" departDelay="2.00" arrival="194.00" arrivalLane="C2B2_0" arrivalPos="492.80" arrivalSpeed="11.24" duration="148.00" routeLength="1495.00" waitingTime="12.00" waitingCount="1" stopTime="0.00" timeLoss="26.90" rerouteNo="0" devices="tripinfo_f_0_2.2 emissions_f_0_2.2" vType="DEFAULT_VEHTYPE" speedFactor="0.89" vaporized="">
        <emissions CO_abs="5576.607268" CO2_abs="343923.459942" HC_abs="32.982920" PMx_abs="4.859078" NOx_abs="131.166559" fuel_abs="109697.457528" electricity_abs="0"/>
    </tripinfo>
    <tripinfo id="f_0_0.11" depart="41.00" departLane="A2B2_0" departPos="5.10" departSpeed="0.00" departDelay="2.00" arrival="196.00" arrivalLane="C2D2_0" arrivalPos="492.80" arrivalSpeed="11.65" duration="155.00" routeLength="1495.00" waitingTime="12.00" waitingCount="1" stopTime="0.00" timeLoss="31.84" rerouteNo="0" devices="tripinfo_f_0_0.11 emissions_f_0_0.11" vType="DEFAULT_VEHTYPE" speedFactor="0.88" vaporized="">
        <emissions CO_abs="6686.527519" CO2_abs="379559.987267" HC_abs="39.019319" PMx_abs="5.741177" NOx_abs="147.962325" fuel_abs="121063.904596" electricity_abs="0"/>
    </tripinfo>
    <tripinfo id="f_0_2.3" depart="49.00" departLane="E2D2_0" departPos="5.10" departSpeed="0.00" departDelay="4.00" arrival="196.00" arrivalLane="C2B2_0" arrivalPos="492.80" arrivalSpeed="12.16" duration="147.00" routeLength="1495.00" waitingTime="9.00" waitingCount="1" stopTime="0.00" timeLoss="29.31" rerouteNo="0" devices="tripinfo_f_0_2.3 emissions_f_0_2.3" vType="DEFAULT_VEHTYPE" speedFactor="0.92" vaporized="">
        <emissions CO_abs="5990.033419" CO2_abs="366572.640236" HC_abs="35.516154" PMx_abs="5.583311" NOx_abs="142.662623" fuel_abs="116921.171698" electricity_abs="0"/>
    </tripinfo>
    <tripinfo id="f_0_0.12" depart="44.00" departLane="A2B2_0" departPos="5.10" departSpeed="0.00" departDelay="4.00" arrival="198.00" arrivalLane="C2D2_0" arrivalPos="492.80" arrivalSpeed="12.60" duration="154.00" routeLength="1495.00" waitingTime="10.00" waitingCount="1" stopTime="0.00" timeLoss="38.79" rerouteNo="0" devices="tripinfo_f_0_0.12 emissions_f_0_0.12" vType="DEFAULT_VEHTYPE" speedFactor="0.94" vaporized="">
        <emissions CO_abs="7459.943011" CO2_abs="409687.213425" HC_abs="43.355289" PMx_abs="6.892622" NOx_abs="164.654202" fuel_abs="130672.563709" electricity_abs="0"/>
    </tripinfo>
    <tripinfo id="f_0_2.4" depart="52.00" departLane="E2D2_0" departPos="5.10" departSpeed="0.00" departDelay="2.00" arrival="198.00" arrivalLane="C2B2_0" arrivalPos="492.80" arrivalSpeed="15.69" duration="146.00" routeLength="1495.00" waitingTime="10.00" waitingCount="2" stopTime="0.00" timeLoss="50.06" rerouteNo="0" devices="tripinfo_f_0_2.4 emissions_f_0_2.4" vType="DEFAULT_VEHTYPE" speedFactor="1.13" vaporized="">
        <emissions CO_abs="6751.673179" CO2_abs="407239.084528" HC_abs="39.923746" PMx_abs="6.782292" NOx_abs="162.493784" fuel_abs="129891.424404" electricity_abs="0"/>
    </tripinfo>
    <tripinfo id="f_0_0.13" depart="47.00" departLane="A2B2_0" departPos="5.10" departSpeed="0.00" departDelay="6.00" arrival="199.00" arrivalLane="C2D2_0" arrivalPos="492.80" arrivalSpeed="14.10" duration="152.00" routeLength="1495.00" waitingTime="9.00" waitingCount="1" stopTime="0.00" timeLoss="58.82" rerouteNo="0" devices="tripinfo_f_0_0.13 emissions_f_0_0.13" vType="DEFAULT_VEHTYPE" speedFactor="1.16" vaporized="">
        <emissions CO_abs="8193.426244" CO2_abs="442642.245340" HC_abs="47.614141" PMx_abs="8.119127" NOx_abs="182.794606" fuel_abs="141183.079534" electricity_abs="0"/>
    </tripinfo>
    <tripinfo id="f_0_2.5" depart="65.00" departLane="E2D2_0" departPos="5.10" departSpeed="0.00" departDelay="0.00" arrival="200.00" arrivalLane="C2B2_0" arrivalPos="492.80" arrivalSpeed="13.84" duration="135.00" routeLength="1495.00" waitingTime="8.00" waitingCount="1" stopTime="0.00" timeLoss="28.52" rerouteNo="0" devices="tripinfo_f_0_2.5 emissions_f_0_2.5" vType="DEFAULT_VEHTYPE" speedFactor="1.02" vaporized="">
        <emissions CO_abs="5248.341718" CO2_abs="366085.538264" HC_abs="31.928604" PMx_abs="5.559333" NOx_abs="141.275104" fuel_abs="116765.390476" electricity_abs="0"/>
    </tripinfo>
    <tripinfo id="f_0_3.0" depart="80.00" departLane="C0C1_0" departPos="5.10" departSpeed="0.00" departDelay="0.00" arrival="200.00" arrivalLane="C2C3_0" arrivalPos="492.80" arrivalSpeed="14.88" duration="120.00" routeLength="1495.00" waitingTime="8.00" waitingCount="1" stopTime="0.00" timeLoss="20.32" rerouteNo="0" devices="tripinfo_f_0_3.0 emissions_f_0_3.0" vType="DEFAULT_VEHTYPE" speedFactor="1.09" vaporized="">
        <emissions CO_abs="4285.475628" CO2_abs="337178.978477" HC_abs="26.333840" PMx_abs="4.900543" NOx_abs="126.229263" fuel_abs="107545.379196" electricity_abs="0"/>
    </tripinfo>
    <tripinfo id="f_0_0.14" depart="50.00" departLane="A2B2_0" departPos="5.10" departSpeed="0.00" departDelay="6.00" arrival="201.00" arrivalLane="C2D2_0" arrivalPos="492.80" arrivalSpeed="12.45" duration="151.00" routeLength="1495.00" waitingTime="8.00" waitingCount="1" stopTime="0.00" timeLoss="40.18" rerouteNo="0" devices="tripinfo_f_0_0.14 emissions_f_0_0.14" vType="DEFAULT_VEHTYPE" speedFactor="0.97" vaporized="">
        <emissions CO_abs="7377.864273" CO2_abs="424005.056670" HC_abs="43.183394" PMx_abs="7.230582" NOx_abs="170.547385" fuel_abs="135239.036722" electricity_abs="0"/>
    </tripinfo>
    <tripinfo id="f_0_2.6" depart="68.00" departLane="E2D2_0" departPos="5.10" departSpeed="0.00" departDelay="1.00" arrival="201.00" arrivalLane="C2B2_0" arrivalPos="492.80" arrivalSpeed="13.03" duration="133.00" routeLength="1495.00" waitingTime="4.00" waitingCount="1" stopTime="0.00" timeLoss="22.26" rerouteNo="0" devices="tripinfo_f_0_2.6 emissions_f_0_2.6" vType="DEFAULT_VEHTYPE" speedFactor="0.97" vaporized="">
        <emissions CO_abs="4828.100146" CO2_abs="355268.667562" HC_abs="29.752666" PMx_abs="5.280456" NOx_abs="136.519073" fuel_abs="113315.226745" electricity_abs="0"/>
    </tripinfo>
    <tripinfo id="f_0_1.7" depart="51.00" departLane="C4C3_0" departPos="5.10" departSpeed="0.00" departDelay="0.00" arrival="205.00" arrivalLane="C2C1_0" arrivalPos="492.80" arrivalSpeed="12.62" duration="154.00" routeLength="1495.00" waitingTime="16.00" waitingCount="2" stopTime="0.00" timeLoss="38.31" rerouteNo="0" devices="tripinfo_f_0_1.7 emissions_f_0_1.7" vType="DEFAULT_VEHTYPE" speedFactor="0.93" vaporized="">
        <emissions CO_abs="7438.684100" CO2_abs="393903.523540" HC_abs="42.561396" PMx_abs="6.186570" NOx_abs="154.209055" fuel_abs="125638.987872" electricity_abs="0"/>
    </tripinfo>
    <tripinfo id="f_0_0.15" depart="53.00" departLane="A2B2_0" departPos="5.10" departSpeed="0.00" departDelay="8.00" arrival="206.00" arrivalLane="C2D2_0" arrivalPos="492.80" arrivalSpeed="10.88" duration="153.00" routeLength="1495.00" waitingTime="6.00" waitingCount="1" stopTime="0.00" timeLoss="22.36" rerouteNo="0" devices="tripinfo_f_0_0.15 emissions_f_0_0.15" vType="DEFAULT_VEHTYPE" speedFactor="0.83" vaporized="">
        <emissions CO_abs="5535.249997" CO2_abs="347310.821915" HC_abs="33.115281" PMx_abs="4.908064" NOx_abs="133.525292" fuel_abs="110777.762384" electricity_abs="0"/>
    </tripinfo>
    <tripinfo id="f_0_1.8" depart="56.00" departLane="C4C3_0" departPos="5.10" departSpeed="0.00" departDelay="0.00" arrival="207.00" arrivalLane="C2C1_0" arrivalPos="492.80" arrivalSpeed="16.02" duration="151.00" routeLength="1495.00" waitingTime="15.00" waitingCount="2" stopTime="0.00" timeLoss="59.05" rerouteNo="0" devices="tripinfo_f_0_1.8 emissions_f_0_1.8" vType="DEFAULT_VEHTYPE" speedFactor="1.18" vaporized="">
        <emissions CO_abs="8230.707261" CO2_abs="424349.856102" HC_abs="47.009718" PMx_abs="7.372285" NOx_abs="171.184232" fuel_abs="135349.389901" electricity_abs="0"/>
    </tripinfo>
    <tripinfo id="f_0_1.9" depart="59.00" departLane="C4C3_0" departPos="5.10" departSpeed="0.00" departDelay="1.00" arrival="208.00" arrivalLane="C2C1_0" arrivalPos="492.80" arrivalSpeed="15.89" duration="149.00" routeLength="1495.00" waitingTime="13.00" waitingCount="2" stopTime="0.00" timeLoss="55.73" rerouteNo="0" devices="tripinfo_f_0_1.9 emissions_f_0_1.9" vType="DEFAULT_VEHTYPE" speedFactor="1.15" vaporized="">
        <emissions CO_abs="8279.140208" CO2_abs="429801.587424" HC_abs="47.599142" PMx_abs="7.718753" NOx_abs="175.236772" fuel_abs="137087.943268" electricity_abs="0"/>
    </tripinfo>
    <tripinfo id="f_0_1.10" depart="62.00" departLane="C4C3_0" departPos="5.10" departSpeed="0.00" departDelay="2.00" arrival="210.00" arrivalLane="C2C1_0" arrivalPos="492.80" arrivalSpeed="15.05" duration="148.00" routeLength="1495.00" waitingTime="13.00" waitingCount="2" stopTime="0.00" timeLoss="55.86" rerouteNo="0" devices="tripinfo_f_0_1.10 emissions_f_0_1.10" vType="DEFAULT_VEHTYPE" speedFactor="1.17" vaporized="">
        <emissions CO_abs="8113.592082" CO2_abs="435600.722807" HC_abs="46.923756" PMx_abs="7.874629" NOx_abs="178.011896" fuel_abs="138937.371291" electricity_abs="0"/>
    </tripinfo>
    <tripinfo id="f_0_1.11" depart="69.00" departLane="C4C3_0" departPos="5.10" departSpeed="0.00" departDelay="0.00" arrival="212.00" arrivalLane="C2C1_0" arrivalPos="492.80" arrivalSpeed="15.36" duration="143.00" routeLength="1495.00" waitingTime="12.00" waitingCount="2" stopTime="0.00" timeLoss="51.20" rerouteNo="0" devices="tripinfo_f_0_1.11 emissions_f_0_1.11" vType="DEFAULT_VEHTYPE" speedFactor="1.18" vaporized="">
        <emissions CO_abs="8491.441976" CO2_abs="457137.728300" HC_abs="48.508475" PMx_abs="8.101329" NOx_abs="183.769935" fuel_abs="145806.901537" electricity_abs="0"/>
    </tripinfo>
    <tripinfo id="f_0_2.7" depart="79.00" departLane="E2D2_0" departPos="5.10" departSpeed="0.00" departDelay="0.00" arrival="215.00" arrivalLane="C2B2_0" arrivalPos="492.80" arrivalSpeed="14.03" duration="136.00" routeLength="1495.00" waitingTime="12.00" waitingCount="1" stopTime="0.00" timeLoss="32.05" rerouteNo="0" devices="tripinfo_f_0_2.7 emissions_f_0_2.7" vType="DEFAULT_VEHTYPE" speedFactor="1.04" vaporized="">
        <emissions CO_abs="6079.041080" CO2_abs="382215.326638" HC_abs="35.798370" PMx_abs="5.896778" NOx_abs="146.966406" fuel_abs="121910.356431" electricity_abs="0"/>
    </tripinfo>
    <tripinfo id="f_0_0.16" depart="56.00" departLane="A2B2_0" departPos="5.10" departSpeed="0.00" departDelay="9.00" arrival="219.00" arrivalLane="C2D2_0" arrivalPos="492.80" arrivalSpeed="12.21" duration="163.00" routeLength="1495.00" waitingTime="18.00" waitingCount="2" stopTime="0.00" timeLoss="49.11" rerouteNo="0" devices="tripinfo_f_0_0.16 emissions_f_0_0.16" vType="DEFAULT_VEHTYPE" speedFactor="0.95" vaporized="">
        <emissions CO_abs="8471.639992" CO2_abs="428346.983364" HC_abs="48.266564" PMx_abs="7.021808" NOx_abs="170.875560" fuel_abs="136624.851485" electricity_abs="0"/>
    </tripinfo>
    <tripinfo id="f_0_0.17" depart="59.00" departLane="A2B2_0" departPos="5.10" departSpeed="0.00" departDelay="0.00" arrival="221.00" arrivalLane="C2D2_0" arrivalPos="492.80" arrivalSpeed="13.68" duration="162.00" routeLength="1495.00" waitingTime="16.00" waitingCount="2" stopTime="0.00" timeLoss="54.09" rerouteNo="0" devices="tripinfo_f_0_0.17 emissions_f_0_0.17" vType="DEFAULT_VEHTYPE" speedFactor="1.01" vaporized="">
        <emissions CO_abs="8889.814139" CO2_abs="458367.938276" HC_abs="51.128086" PMx_abs="8.015541" NOx_abs="186.373863" fuel_abs="146199.611301" electricity_abs="0"/>
    </tripinfo>
    <tripinfo id="f_0_0.18" depart="62.00" departLane="A2B2_0" departPos="5.10" departSpeed="0.00" departDelay="0.00" arrival="222.00" arrivalLane="C2D2_0" arrivalPos="492.80" arrivalSpeed="13.23" duration="160.00" routeLength="1495.00" waitingTime="15.00" waitingCount="2" stopTime="0.00" timeLoss="51.68" rerouteNo="0" devices="tripinfo_f_0_0.18 emissions_f_0_0.18" vType="DEFAULT_VEHTYPE" speedFactor="0.99" vaporized="">
        <emissions CO_abs="8656.678224" CO2_abs="439221.044400" HC_abs="49.264428" PMx_abs="7.509435" NOx_abs="176.830282" fuel_abs="140092.866926" electricity_abs="0"/>
    </tripinfo>
    <tripinfo id="f_0_0.19" depart="71.00" departLane="A2B2_0" departPos="5.10" departSpeed="0.00" departDelay="0.00" arrival="224.00" arrivalLane="C2D2_0" arrivalPos="492.80" arrivalSpeed="14.53" duration="153.00" routeLength="1495.00" waitingTime="14.00" waitingCount="2" stopTime="0.00" timeLoss="54.80" rerouteNo="0" devices="tripinfo_f_0_0.19 emissions_f_0_0.19" vType="DEFAULT_VEHTYPE" speedFactor="1.10" vaporized="">
        <emissions CO_abs="8430.011663" CO2_abs="445907.840928" HC_abs="48.424307" PMx_abs="7.813486" NOx_abs="180.442254" fuel_abs="142225.223364" electricity_abs="0"/>
    </tripinfo>
    <tripinfo id="f_0_2.8" depart="82.00" departLane="E2D2_0" departPos="5.10" departSpeed="0.00" departDelay="1.00" arrival="224.00" arrivalLane="C2B2_0" arrivalPos="492.80" arrivalSpeed="10.92" duration="142.00" routeLength="1495.00" waitingTime="0.00" waitingCount="0" stopTime="0.00" timeLoss="18.93" rerouteNo="0" devices="tripinfo_f_0_2.8 emissions_f_0_2.8" vType="DEFAULT_VEHTYPE" speedFactor="0.88" vaporized="">
        <emissions CO_abs="4641.116318" CO2_abs="345539.573119" HC_abs="28.914321" PMx_abs="4.881963" NOx_abs="132.277020" fuel_abs="110212.291726" electricity_abs="0"/>
    </tripinfo>
    <tripinfo id="f_0_2.9" depart="85.00" departLane="E2D2_0" departPos="5.10" departSpeed="0.00" departDelay="2.00" arrival="226.00" arrivalLane="C2B2_0" arrivalPos="492.80" arrivalSpeed="14.77" duration="141.00" routeLength="1495.00" waitingTime="0.00" waitingCount="0" stopTime="0.00" timeLoss="48.24" rerouteNo="0" devices="tripinfo_f_0_2.9 emissions_f_0_2.9" vType="DEFAULT_VEHTYPE" speedFactor="1.17" vaporized="">
        <emissions CO_abs="5456.809881" CO2_abs="379756.693883" HC_abs="33.442774" PMx_abs="6.067815" NOx_abs="150.231442" fuel_abs="121125.481322" electricity_abs="0"/>
    </tripinfo>
    <tripinfo id="f_0_2.10" depart="92.00" departLane="E2D2_0" departPos="5.10" departSpeed="0.00" departDelay="0.00" arrival="228.00" arrivalLane="C2B2_0" arrivalPos="492.80" arrivalSpeed="11.84" duration="136.00" routeLength="1495.00" waitingTime="0.00" waitingCount="0" stopTime="0.00" timeLoss="20.50" rerouteNo="0" devices="tripinfo_f_0_2.10 emissions_f_0_2.10" vType="DEFAULT_VEHTYPE" speedFactor="0.94" vaporized="">
        <emissions CO_abs="4536.562804" CO2_abs="350270.920267" HC_abs="28.487031" PMx_abs="5.296583" NOx_abs="136.288920" fuel_abs="111720.862464" electricity_abs="0"/>
    </tripinfo>
    <tripinfo id="f_0_0.20" depart="74.00" departLane="A2B2_0" departPos="5.10" departSpeed="0.00" departDelay="2.00" arrival="229.00" arrivalLane="C2D2_0" arrivalPos="492.80" arrivalSpeed="12.42" duration="155.00" routeLength="1495.00" waitingTime="10.00" waitingCount="2" stopTime="0.00" timeLoss="35.14" rerouteNo="0" devices="tripinfo_f_0_0.20 emissions_f_0_0.20" vType="DEFAULT_VEHTYPE" speedFactor="0.90" vaporized="">
        <emissions CO_abs="6602.459628" CO2_abs="375497.181671" HC_abs="38.379191" PMx_abs="5.543447" NOx_abs="144.953361" fuel_abs="119768.207629" electricity_abs="0"/>
    </tripinfo>
    <tripinfo id="f_0_2.11" depart="97.00" departLane="E2D2_0" departPos="5.10" departSpeed="0.00" departDelay="0.00" arrival="229.00" arrivalLane="C2B2_0" arrivalPos="492.80" arrivalSpeed="13.40" duration="132.00" routeLength="1495.00" waitingTime="0.00" waitingCount="0" stopTime="0.00" timeLoss="21.22" rerouteNo="0" devices="tripinfo_f_0_2.11 emissions_f_0_2.11" vType="DEFAULT_VEHTYPE" speedFactor="0.97" vaporized="">
        <emissions CO_abs="4556.404035" CO2_abs="359701.228246" HC_abs="28.642222" PMx_abs="5.491457" NOx_abs="139.658542" fuel_abs="114728.614325" electricity_abs="0"/>
    </tripinfo>
    <tripinfo id="f_0_1.12" depart="73.00" departLane="C4C3_0" departPos="5.10" departSpeed="0.00" departDelay="0.00" arrival="230.00" arrivalLane="C2C1_0" arrivalPos="492.80" arrivalSpeed="13.36" duration="157.00" routeLength="1495.00" waitingTime="23.00" waitingCount="2" stopTime="0.00" timeLoss="51.63" rerouteNo="0" devices="tripinfo_f_0_1.12 emissions_f_0_1.12" vType="DEFAULT_VEHTYPE" speedFactor="1.03" vaporized="">
        <emissions CO_abs="8640.762042" CO2_abs="413764.815282" HC_abs="48.696693" PMx_abs="7.048522" NOx_abs="165.352313" fuel_abs="131973.819771" electricity_abs="0"/>
    </tripinfo>