<?xml version="1.0" encoding="UTF-8"?>

<!-- generated on 2024-08-22 13:36:57 by Eclipse SUMO sumo Version 1.17.0
<configuration xmlns:xsi="http://www.w3.org/2001/XMLSchema-instance" xsi:noNamespaceSchemaLocation="http://sumo.dlr.de/xsd/sumoConfiguration.xsd">

    <input>
        <net-file value="single_neat.net.xml"/>
        <route-files value="single_2.rou.xml"/>
    </input>

    <output>
        <tripinfo-output value="emissions_test\z14_data_VehicleNumberAndHaltingNumber_stepThreshold_4000_gen_80_2emissionssingle.xml"/>
    </output>

    <processing>
        <time-to-teleport value="-1"/>
    </processing>

    <report>
        <no-warnings value="true"/>
    </report>

    <emissions>
        <device.emissions.probability value="1.0"/>
    </emissions>

    <traci_server>
        <remote-port value="58233"/>
    </traci_server>

</configuration>
-->

<tripinfos xmlns:xsi="http://www.w3.org/2001/XMLSchema-instance" xsi:noNamespaceSchemaLocation="http://sumo.dlr.de/xsd/tripinfo_file.xsd">
    <tripinfo id="f_0_0.0" depart="2.00" departLane="A2B2_0" departPos="5.10" departSpeed="0.00" departDelay="0.00" arrival="123.00" arrivalLane="C2D2_0" arrivalPos="492.80" arrivalSpeed="14.16" duration="121.00" routeLength="1495.00" waitingTime="4.00" waitingCount="1" stopTime="0.00" timeLoss="18.68" rerouteNo="0" devices="tripinfo_f_0_0.0 emissions_f_0_0.0" vType="DEFAULT_VEHTYPE" speedFactor="1.06" vaporized="">
        <emissions CO_abs="4123.959389" CO2_abs="335095.313158" HC_abs="25.686502" PMx_abs="4.970810" NOx_abs="126.877074" fuel_abs="106880.563277" electricity_abs="0"/>
    </tripinfo>
    <tripinfo id="f_0_0.1" depart="5.00" departLane="A2B2_0" departPos="5.10" departSpeed="0.00" departDelay="0.00" arrival="129.00" arrivalLane="C2D2_0" arrivalPos="492.80" arrivalSpeed="12.67" duration="124.00" routeLength="1495.00" waitingTime="0.00" waitingCount="0" stopTime="0.00" timeLoss="9.18" rerouteNo="0" devices="tripinfo_f_0_0.1 emissions_f_0_0.1" vType="DEFAULT_VEHTYPE" speedFactor="0.94" vaporized="">
        <emissions CO_abs="2521.814990" CO2_abs="292783.889854" HC_abs="17.606823" PMx_abs="3.531145" NOx_abs="106.244019" fuel_abs="93385.375454" electricity_abs="0"/>
    </tripinfo>
    <tripinfo id="f_0_0.2" depart="10.00" departLane="A2B2_0" departPos="5.10" departSpeed="0.00" departDelay="0.00" arrival="131.00" arrivalLane="C2D2_0" arrivalPos="492.80" arrivalSpeed="13.75" duration="121.00" routeLength="1495.00" waitingTime="0.00" waitingCount="0" stopTime="0.00" timeLoss="13.96" rerouteNo="0" devices="tripinfo_f_0_0.2 emissions_f_0_0.2" vType="DEFAULT_VEHTYPE" speedFactor="1.01" vaporized="">
        <emissions CO_abs="3175.082146" CO2_abs="327791.523611" HC_abs="21.744052" PMx_abs="4.605903" NOx_abs="123.704007" fuel_abs="104550.759314" electricity_abs="0"/>
    </tripinfo>
    <tripinfo id="f_0_0.3" depart="16.00" departLane="A2B2_0" departPos="5.10" departSpeed="0.00" departDelay="0.00" arrival="133.00" arrivalLane="C2D2_0" arrivalPos="492.80" arrivalSpeed="14.86" duration="117.00" routeLength="1495.00" waitingTime="0.00" waitingCount="0" stopTime="0.00" timeLoss="16.78" rerouteNo="0" devices="tripinfo_f_0_0.3 emissions_f_0_0.3" vType="DEFAULT_VEHTYPE" speedFactor="1.08" vaporized="">
        <emissions CO_abs="3522.545009" CO2_abs="344358.660048" HC_abs="23.564021" PMx_abs="5.221758" NOx_abs="132.212404" fuel_abs="109834.585718" electricity_abs="0"/>
    </tripinfo>
    <tripinfo id="f_0_1.0" depart="27.00" departLane="C4C3_0" departPos="5.10" departSpeed="0.00" departDelay="0.00" arrival="138.00" arrivalLane="C2C1_0" arrivalPos="492.80" arrivalSpeed="13.56" duration="111.00" routeLength="1495.00" waitingTime="0.00" waitingCount="0" stopTime="0.00" timeLoss="8.04" rerouteNo="0" devices="tripinfo_f_0_1.0 emissions_f_0_1.0" vType="DEFAULT_VEHTYPE" speedFactor="1.05" vaporized="">
        <emissions CO_abs="2254.251742" CO2_abs="287541.763180" HC_abs="16.152707" PMx_abs="3.701785" NOx_abs="104.608562" fuel_abs="91712.959661" electricity_abs="0"/>
    </tripinfo>
    <tripinfo id="f_0_0.4" depart="20.00" departLane="A2B2_0" departPos="5.10" departSpeed="0.00" departDelay="0.00" arrival="152.00" arrivalLane="C2D2_0" arrivalPos="492.80" arrivalSpeed="13.28" duration="132.00" routeLength="1495.00" waitingTime="12.00" waitingCount="1" stopTime="0.00" timeLoss="26.69" rerouteNo="0" devices="tripinfo_f_0_0.4 emissions_f_0_0.4" vType="DEFAULT_VEHTYPE" speedFactor="1.03" vaporized="">
        <emissions CO_abs="5412.135951" CO2_abs="348917.754489" HC_abs="32.033972" PMx_abs="5.281675" NOx_abs="133.372285" fuel_abs="111289.904491" electricity_abs="0"/>
    </tripinfo>
    <tripinfo id="f_0_0.5" depart="25.00" departLane="A2B2_0" departPos="5.10" departSpeed="0.00" departDelay="0.00" arrival="165.00" arrivalLane="C2D2_0" arrivalPos="492.80" arrivalSpeed="11.06" duration="140.00" routeLength="1495.00" waitingTime="0.00" waitingCount="0" stopTime="0.00" timeLoss="10.01" rerouteNo="0" devices="tripinfo_f_0_0.5 emissions_f_0_0.5" vType="DEFAULT_VEHTYPE" speedFactor="0.83" vaporized="">
        <emissions CO_abs="3297.178111" CO2_abs="300588.614690" HC_abs="21.795780" PMx_abs="3.643597" NOx_abs="111.062080" fuel_abs="95875.102291" electricity_abs="0"/>
    </tripinfo>
    <tripinfo id="f_0_0.6" depart="29.00" departLane="A2B2_0" departPos="5.10" departSpeed="0.00" departDelay="0.00" arrival="167.00" arrivalLane="C2D2_0" arrivalPos="492.80" arrivalSpeed="11.31" duration="138.00" routeLength="1495.00" waitingTime="0.00" waitingCount="0" stopTime="0.00" timeLoss="15.92" rerouteNo="0" devices="tripinfo_f_0_0.6 emissions_f_0_0.6" vType="DEFAULT_VEHTYPE" speedFactor="0.89" vaporized="">
        <emissions CO_abs="3966.286572" CO2_abs="326048.382336" HC_abs="25.539099" PMx_abs="4.708652" NOx_abs="125.752756" fuel_abs="103995.049594" electricity_abs="0"/>
    </tripinfo>
    <tripinfo id="f_0_1.1" depart="30.00" departLane="C4C3_0" departPos="5.10" departSpeed="0.00" departDelay="1.00" arrival="169.00" arrivalLane="C2C1_0" arrivalPos="492.80" arrivalSpeed="12.38" duration="139.00" routeLength="1495.00" waitingTime="9.00" waitingCount="1" stopTime="0.00" timeLoss="23.84" rerouteNo="0" devices="tripinfo_f_0_1.1 emissions_f_0_1.1" vType="DEFAULT_VEHTYPE" speedFactor="0.94" vaporized="">
        <emissions CO_abs="5357.850303" CO2_abs="347734.749770" HC_abs="32.113947" PMx_abs="5.264993" NOx_abs="134.693067" fuel_abs="110912.517170" electricity_abs="0"/>
    </tripinfo>
    <tripinfo id="f_0_1.2" depart="42.00" departLane="C4C3_0" departPos="5.10" departSpeed="0.00" departDelay="0.00" arrival="171.00" arrivalLane="C2C1_0" arrivalPos="492.80" arrivalSpeed="14.23" duration="129.00" routeLength="1495.00" waitingTime="7.00" waitingCount="1" stopTime="0.00" timeLoss="23.35" rerouteNo="0" devices="tripinfo_f_0_1.2 emissions_f_0_1.2" vType="DEFAULT_VEHTYPE" speedFactor="1.03" vaporized="">
        <emissions CO_abs="4672.981931" CO2_abs="347353.823594" HC_abs="28.589391" PMx_abs="5.154254" NOx_abs="132.511644" fuel_abs="110790.722666" electricity_abs="0"/>
    </tripinfo>
    <tripinfo id="f_0_1.3" depart="45.00" departLane="C4C3_0" departPos="5.10" departSpeed="0.00" departDelay="0.00" arrival="172.00" arrivalLane="C2C1_0" arrivalPos="492.80" arrivalSpeed="15.46" duration="127.00" routeLength="1495.00" waitingTime="6.00" waitingCount="1" stopTime="0.00" timeLoss="30.99" rerouteNo="0" devices="tripinfo_f_0_1.3 emissions_f_0_1.3" vType="DEFAULT_VEHTYPE" speedFactor="1.12" vaporized="">
        <emissions CO_abs="5305.836983" CO2_abs="373094.311444" HC_abs="32.370673" PMx_abs="6.009937" NOx_abs="145.901385" fuel_abs="119000.456486" electricity_abs="0"/>
    </tripinfo>
    <tripinfo id="f_0_2.0" depart="45.00" departLane="E2D2_0" departPos="5.10" departSpeed="0.00" departDelay="0.00" arrival="181.00" arrivalLane="C2B2_0" arrivalPos="492.80" arrivalSpeed="13.37" duration="136.00" routeLength="1495.00" waitingTime="14.00" waitingCount="1" stopTime="0.00" timeLoss="26.86" rerouteNo="0" devices="tripinfo_f_0_2.0 emissions_f_0_2.0" vType="DEFAULT_VEHTYPE" speedFactor="0.99" vaporized="">
        <emissions CO_abs="5604.066233" CO2_abs="346000.162516" HC_abs="33.009432" PMx_abs="5.282841" NOx_abs="133.491478" fuel_abs="110359.397625" electricity_abs="0"/>
    </tripinfo>
    <tripinfo id="f_0_2.1" depart="50.00" departLane="E2D2_0" departPos="5.10" departSpeed="0.00" departDelay="0.00" arrival="186.00" arrivalLane="C2B2_0" arrivalPos="492.80" arrivalSpeed="12.12" duration="136.00" routeLength="1495.00" waitingTime="4.00" waitingCount="1" stopTime="0.00" timeLoss="19.67" rerouteNo="0" devices="tripinfo_f_0_2.1 emissions_f_0_2.1" vType="DEFAULT_VEHTYPE" speedFactor="0.93" vaporized="">
        <emissions CO_abs="4219.409996" CO2_abs="329628.456530" HC_abs="26.198966" PMx_abs="4.377280" NOx_abs="123.050477" fuel_abs="105137.576705" electricity_abs="0"/>
    </tripinfo>
    <tripinfo id="f_0_0.7" depart="34.00" departLane="A2B2_0" departPos="5.10" departSpeed="0.00" departDelay="0.00" arrival="188.00" arrivalLane="C2D2_0" arrivalPos="492.80" arrivalSpeed="11.05" duration="154.00" routeLength="1495.00" waitingTime="12.00" waitingCount="1" stopTime="0.00" timeLoss="27.49" rerouteNo="0" devices="tripinfo_f_0_0.7 emissions_f_0_0.7" vType="DEFAULT_VEHTYPE" speedFactor="0.86" vaporized="">
        <emissions CO_abs="6185.150669" CO2_abs="355723.510887" HC_abs="36.169846" PMx_abs="5.237502" NOx_abs="137.588819" fuel_abs="113461.194227" electricity_abs="0"/>
    </tripinfo>
    <tripinfo id="f_0_2.2" depart="65.00" departLane="E2D2_0" departPos="5.10" departSpeed="0.00" departDelay="0.00" arrival="188.00" arrivalLane="C2B2_0" arrivalPos="492.80" arrivalSpeed="13.42" duration="123.00" routeLength="1495.00" waitingTime="0.00" waitingCount="0" stopTime="0.00" timeLoss="15.96" rerouteNo="0" devices="tripinfo_f_0_2.2 emissions_f_0_2.2" vType="DEFAULT_VEHTYPE" speedFactor="1.01" vaporized="">
        <emissions CO_abs="3233.115385" CO2_abs="314653.413127" HC_abs="21.295302" PMx_abs="4.302254" NOx_abs="117.664787" fuel_abs="100360.497491" electricity_abs="0"/>
    </tripinfo>
    <tripinfo id="f_0_0.8" depart="41.00" departLane="A2B2_0" departPos="5.10" departSpeed="0.00" departDelay="0.00" arrival="189.00" arrivalLane="C2D2_0" arrivalPos="492.80" arrivalSpeed="12.89" duration="148.00" routeLength="1495.00" waitingTime="16.00" waitingCount="2" stopTime="0.00" timeLoss="49.12" rerouteNo="0" devices="tripinfo_f_0_0.8 emissions_f_0_0.8" vType="DEFAULT_VEHTYPE" speedFactor="1.09" vaporized="">
        <emissions CO_abs="7754.341819" CO2_abs="418225.379525" HC_abs="44.415934" PMx_abs="6.862876" NOx_abs="165.194499" fuel_abs="133396.182749" electricity_abs="0"/>
    </tripinfo>
    <tripinfo id="f_0_2.3" depart="68.00" departLane="E2D2_0" departPos="5.10" departSpeed="0.00" departDelay="1.00" arrival="190.00" arrivalLane="C2B2_0" arrivalPos="492.80" arrivalSpeed="12.83" duration="122.00" routeLength="1495.00" waitingTime="0.00" waitingCount="0" stopTime="0.00" timeLoss="10.83" rerouteNo="0" devices="tripinfo_f_0_2.3 emissions_f_0_2.3" vType="DEFAULT_VEHTYPE" speedFactor="0.97" vaporized="">
        <emissions CO_abs="2818.576869" CO2_abs="313974.056724" HC_abs="19.287766" PMx_abs="4.008822" NOx_abs="115.147433" fuel_abs="100143.908591" electricity_abs="0"/>
    </tripinfo>
    <tripinfo id="f_0_0.9" depart="44.00" departLane="A2B2_0" departPos="5.10" departSpeed="0.00" departDelay="0.00" arrival="191.00" arrivalLane="C2D2_0" arrivalPos="492.80" arrivalSpeed="14.16" duration="147.00" routeLength="1495.00" waitingTime="15.00" waitingCount="2" stopTime="0.00" timeLoss="43.56" rerouteNo="0" devices="tripinfo_f_0_0.9 emissions_f_0_0.9" vType="DEFAULT_VEHTYPE" speedFactor="1.05" vaporized="">
        <emissions CO_abs="7710.058121" CO2_abs="420048.955213" HC_abs="44.463917" PMx_abs="7.073536" NOx_abs="167.378491" fuel_abs="133977.586169" electricity_abs="0"/>
    </tripinfo>
    <tripinfo id="f_0_0.10" depart="59.00" departLane="A2B2_0" departPos="5.10" departSpeed="0.00" departDelay="0.00" arrival="192.00" arrivalLane="C2D2_0" arrivalPos="492.80" arrivalSpeed="15.23" duration="133.00" routeLength="1495.00" waitingTime="10.00" waitingCount="1" stopTime="0.00" timeLoss="40.01" rerouteNo="0" devices="tripinfo_f_0_0.10 emissions_f_0_0.10" vType="DEFAULT_VEHTYPE" speedFactor="1.16" vaporized="">
        <emissions CO_abs="6313.605354" CO2_abs="397439.965111" HC_abs="37.563000" PMx_abs="6.665225" NOx_abs="157.697695" fuel_abs="126765.713684" electricity_abs="0"/>
    </tripinfo>
    <tripinfo id="f_0_1.4" depart="51.00" departLane="C4C3_0" departPos="5.10" departSpeed="0.00" departDelay="0.00" arrival="200.00" arrivalLane="C2C1_0" arrivalPos="492.80" arrivalSpeed="11.50" duration="149.00" routeLength="1495.00" waitingTime="12.00" waitingCount="1" stopTime="0.00" timeLoss="25.62" rerouteNo="0" devices="tripinfo_f_0_1.4 emissions_f_0_1.4" vType="DEFAULT_VEHTYPE" speedFactor="0.88" vaporized="">
        <emissions CO_abs="5796.577610" CO2_abs="351789.223122" HC_abs="34.308359" PMx_abs="5.220548" NOx_abs="136.132882" fuel_abs="112206.071162" electricity_abs="0"/>
    </tripinfo>
    <tripinfo id="f_0_1.5" depart="56.00" departLane="C4C3_0" departPos="5.10" departSpeed="0.00" departDelay="0.00" arrival="201.00" arrivalLane="C2C1_0" arrivalPos="492.80" arrivalSpeed="12.06" duration="145.00" routeLength="1495.00" waitingTime="10.00" waitingCount="1" stopTime="0.00" timeLoss="30.62" rerouteNo="0" devices="tripinfo_f_0_1.5 emissions_f_0_1.5" vType="DEFAULT_VEHTYPE" speedFactor="0.94" vaporized="">
        <emissions CO_abs="6180.349162" CO2_abs="378800.604389" HC_abs="36.670214" PMx_abs="5.953477" NOx_abs="148.718841" fuel_abs="120821.144863" electricity_abs="0"/>
    </tripinfo>
    <tripinfo id="f_0_1.6" depart="59.00" departLane="C4C3_0" departPos="5.10" departSpeed="0.00" departDelay="1.00" arrival="203.00" arrivalLane="C2C1_0" arrivalPos="492.80" arrivalSpeed="11.79" duration="144.00" routeLength="1495.00" waitingTime="10.00" waitingCount="1" stopTime="0.00" timeLoss="28.78" rerouteNo="0" devices="tripinfo_f_0_1.6 emissions_f_0_1.6" vType="DEFAULT_VEHTYPE" speedFactor="0.94" vaporized="">
        <emissions CO_abs="5642.232811" CO2_abs="362716.641972" HC_abs="33.820694" PMx_abs="5.443106" NOx_abs="140.309611" fuel_abs="115691.193756" electricity_abs="0"/>
    </tripinfo>
    <tripinfo id="f_0_3.0" depart="80.00" departLane="C0C1_0" departPos="5.10" departSpeed="0.00" departDelay="0.00" arrival="203.00" arrivalLane="C2C3_0" arrivalPos="492.80" arrivalSpeed="12.79" duration="123.00" routeLength="1495.00" waitingTime="0.00" waitingCount="0" stopTime="0.00" timeLoss="8.79" rerouteNo="0" devices="tripinfo_f_0_3.0 emissions_f_0_3.0" vType="DEFAULT_VEHTYPE" speedFactor="0.95" vaporized="">
        <emissions CO_abs="2560.930642" CO2_abs="302191.121291" HC_abs="18.062496" PMx_abs="3.687559" NOx_abs="109.603129" fuel_abs="96385.824609" electricity_abs="0"/>
    </tripinfo>
    <tripinfo id="f_0_3.1" depart="85.00" departLane="C0C1_0" departPos="5.10" departSpeed="0.00" departDelay="0.00" arrival="204.00" arrivalLane="C2C3_0" arrivalPos="492.80" arrivalSpeed="15.07" duration="119.00" routeLength="1495.00" waitingTime="0.00" waitingCount="0" stopTime="0.00" timeLoss="27.51" rerouteNo="0" devices="tripinfo_f_0_3.1 emissions_f_0_3.1" vType="DEFAULT_VEHTYPE" speedFactor="1.18" vaporized="">
        <emissions CO_abs="3347.807199" CO2_abs="321023.080300" HC_abs="22.235563" PMx_abs="4.761011" NOx_abs="122.729354" fuel_abs="102391.762518" electricity_abs="0"/>
    </tripinfo>
    <tripinfo id="f_0_1.7" depart="62.00" departLane="C4C3_0" departPos="5.10" departSpeed="0.00" departDelay="2.00" arrival="205.00" arrivalLane="C2C1_0" arrivalPos="492.80" arrivalSpeed="13.40" duration="143.00" routeLength="1495.00" waitingTime="8.00" waitingCount="2" stopTime="0.00" timeLoss="36.64" rerouteNo="0" devices="tripinfo_f_0_1.7 emissions_f_0_1.7" vType="DEFAULT_VEHTYPE" speedFactor="1.02" vaporized="">
        <emissions CO_abs="6884.118183" CO2_abs="415036.045240" HC_abs="40.543335" PMx_abs="6.739100" NOx_abs="164.010929" fuel_abs="132378.491858" electricity_abs="0"/>
    </tripinfo>
    <tripinfo id="f_0_3.2" depart="88.00" departLane="C0C1_0" departPos="5.10" departSpeed="0.00" departDelay="2.00" arrival="206.00" arrivalLane="C2C3_0" arrivalPos="492.80" arrivalSpeed="15.30" duration="118.00" routeLength="1495.00" waitingTime="0.00" waitingCount="0" stopTime="0.00" timeLoss="24.24" rerouteNo="0" devices="tripinfo_f_0_3.2 emissions_f_0_3.2" vType="DEFAULT_VEHTYPE" speedFactor="1.15" vaporized="">
        <emissions CO_abs="3762.215729" CO2_abs="340492.635233" HC_abs="24.766916" PMx_abs="5.415689" NOx_abs="133.005841" fuel_abs="108601.380672" electricity_abs="0"/>
    </tripinfo>
    <tripinfo id="f_0_1.8" depart="73.00" departLane="C4C3_0" departPos="5.10" departSpeed="0.00" departDelay="0.00" arrival="208.00" arrivalLane="C2C1_0" arrivalPos="492.80" arrivalSpeed="11.37" duration="135.00" routeLength="1495.00" waitingTime="0.00" waitingCount="0" stopTime="0.00" timeLoss="11.20" rerouteNo="0" devices="tripinfo_f_0_1.8 emissions_f_0_1.8" vType="DEFAULT_VEHTYPE" speedFactor="0.87" vaporized="">
        <emissions CO_abs="3286.857519" CO2_abs="317552.610266" HC_abs="22.000085" PMx_abs="3.976756" NOx_abs="117.614779" fuel_abs="101285.662991" electricity_abs="0"/>
    </tripinfo>
    <tripinfo id="f_0_3.3" depart="91.00" departLane="C0C1_0" departPos="5.10" departSpeed="0.00" departDelay="4.00" arrival="208.00" arrivalLane="C2C3_0" arrivalPos="492.80" arrivalSpeed="15.74" duration="117.00" routeLength="1495.00" waitingTime="0.00" waitingCount="0" stopTime="0.00" timeLoss="24.35" rerouteNo="0" devices="tripinfo_f_0_3.3 emissions_f_0_3.3" vType="DEFAULT_VEHTYPE" speedFactor="1.17" vaporized="">
        <emissions CO_abs="3817.135124" CO2_abs="349600.379837" HC_abs="24.924436" PMx_abs="5.489485" NOx_abs="135.359610" fuel_abs="111506.364781" electricity_abs="0"/>
    </tripinfo>
    <tripinfo id="f_0_1.9" depart="80.00" departLane="C4C3_0" departPos="5.10" departSpeed="0.00" departDelay="0.00" arrival="210.00" arrivalLane="C2C1_0" arrivalPos="492.80" arrivalSpeed="12.19" duration="130.00" routeLength="1495.00" waitingTime="0.00" waitingCount="0" stopTime="0.00" timeLoss="12.02" rerouteNo="0" devices="tripinfo_f_0_1.9 emissions_f_0_1.9" vType="DEFAULT_VEHTYPE" speedFactor="0.92" vaporized="">
        <emissions CO_abs="3366.174273" CO2_abs="318373.412428" HC_abs="22.310876" PMx_abs="4.336564" NOx_abs="119.995741" fuel_abs="101547.096804" electricity_abs="0"/>
    </tripinfo>
    <tripinfo id="f_0_2.4" depart="97.00" departLane="E2D2_0" departPos="5.10" departSpeed="0.00" departDelay="0.00" arrival="210.00" arrivalLane="C2B2_0" arrivalPos="492.80" arrivalSpeed="13.63" duration="113.00" routeLength="1495.00" waitingTime="0.00" waitingCount="0" stopTime="0.00" timeLoss="8.05" rerouteNo="0" devices="tripinfo_f_0_2.4 emissions_f_0_2.4" vType="DEFAULT_VEHTYPE" speedFactor="1.03" vaporized="">
        <emissions CO_abs="2428.362299" CO2_abs="286670.301540" HC_abs="16.974619" PMx_abs="3.858625" NOx_abs="105.720873" fuel_abs="91434.933270" electricity_abs="0"/>
    </tripinfo>
    <tripinfo id="f_0_0.11" depart="71.00" departLane="A2B2_0" departPos="5.10" departSpeed="0.00" departDelay="0.00" arrival="216.00" arrivalLane="C2D2_0" arrivalPos="492.80" arrivalSpeed="11.26" duration="145.00" routeLength="1495.00" waitingTime="8.00" waitingCount="1" stopTime="0.00" timeLoss="23.43" rerouteNo="0" devices="tripinfo_f_0_0.11 emissions_f_0_0.11" vType="DEFAULT_VEHTYPE" speedFactor="0.89" vaporized="">
        <emissions CO_abs="5222.326324" CO2_abs="350368.072672" HC_abs="31.684304" PMx_abs="4.976811" NOx_abs="134.015155" fuel_abs="111752.689716" electricity_abs="0"/>
    </tripinfo>
    <tripinfo id="f_0_0.12" depart="74.00" departLane="A2B2_0" departPos="5.10" departSpeed="0.00" departDelay="2.00" arrival="221.00" arrivalLane="C2D2_0" arrivalPos="492.80" arrivalSpeed="10.51" duration="147.00" routeLength="1495.00" waitingTime="1.00" waitingCount="1" stopTime="0.00" timeLoss="16.52" rerouteNo="0" devices="tripinfo_f_0_0.12 emissions_f_0_0.12" vType="DEFAULT_VEHTYPE" speedFactor="0.83" vaporized="">
        <emissions CO_abs="4710.183553" CO2_abs="341119.080975" HC_abs="29.211367" PMx_abs="4.753168" NOx_abs="130.698392" fuel_abs="108802.467834" electricity_abs="0"/>
    </tripinfo>
    <tripinfo id="f_0_0.13" depart="81.00" departLane="A2B2_0" departPos="5.10" departSpeed="0.00" departDelay="0.00" arrival="223.00" arrivalLane="C2D2_0" arrivalPos="492.80" arrivalSpeed="13.26" duration="142.00" routeLength="1495.00" waitingTime="0.00" waitingCount="0" stopTime="0.00" timeLoss="46.56" rerouteNo="0" devices="tripinfo_f_0_0.13 emissions_f_0_0.13" vType="DEFAULT_VEHTYPE" speedFactor="1.13" vaporized="">
        <emissions CO_abs="5438.880906" CO2_abs="379480.171420" HC_abs="33.463603" PMx_abs="5.979319" NOx_abs="149.629410" fuel_abs="121037.363337" electricity_abs="0"/>
    </tripinfo>
    <tripinfo id="f_0_3.4" depart="94.00" departLane="C0C1_0" departPos="5.10" departSpeed="0.00" departDelay="5.00" arrival="225.00" arrivalLane="C2C3_0" arrivalPos="492.80" arrivalSpeed="12.71" duration="131.00" routeLength="1495.00" waitingTime="9.00" waitingCount="1" stopTime="0.00" timeLoss="22.18" rerouteNo="0" devices="tripinfo_f_0_3.4 emissions_f_0_3.4" vType="DEFAULT_VEHTYPE" speedFactor="0.99" vaporized="">
        <emissions CO_abs="4662.352775" CO2_abs="329527.581049" HC_abs="28.130765" PMx_abs="4.793518" NOx_abs="124.989447" fuel_abs="105105.190699" electricity_abs="0"/>
    </tripinfo>
    <tripinfo id="f_0_0.14" depart="95.00" departLane="A2B2_0" departPos="5.10" departSpeed="0.00" departDelay="0.00" arrival="225.00" arrivalLane="C2D2_0" arrivalPos="492.80" arrivalSpeed="13.47" duration="130.00" routeLength="1495.00" waitingTime="0.00" waitingCount="0" stopTime="0.00" timeLoss="18.74" rerouteNo="0" devices="tripinfo_f_0_0.14 emissions_f_0_0.14" vType="DEFAULT_VEHTYPE" speedFactor="0.97" vaporized="">
        <emissions CO_abs="3730.737449" CO2_abs="332652.828889" HC_abs="24.163306" PMx_abs="4.701901" NOx_abs="126.195052" fuel_abs="106101.520482" electricity_abs="0"/>
    </tripinfo>
    <tripinfo id="f_0_3.5" depart="96.00" departLane="C0C1_0" departPos="5.10" departSpeed="0.00" departDelay="1.00" arrival="226.00" arrivalLane="C2C3_0" arrivalPos="492.80" arrivalSpeed="14.84" duration="130.00" routeLength="1495.00" waitingTime="8.00" waitingCount="1" stopTime="0.00" timeLoss="38.74" rerouteNo="0" devices="tripinfo_f_0_3.5 emissions_f_0_3.5" vType="DEFAULT_VEHTYPE" speedFactor="1.18" vaporized="">
        <emissions CO_abs="5735.027522" CO2_abs="367293.816041" HC_abs="34.108820" PMx_abs="6.006221" NOx_abs="144.432553" fuel_abs="117150.551705" electricity_abs="0"/>
    </tripinfo>
    <tripinfo id="f_0_0.15" depart="98.00" departLane="A2B2_0" departPos="5.10" departSpeed="0.00" departDelay="2.00" arrival="227.00" arrivalLane="C2D2_0" arrivalPos="492.80" arrivalSpeed="15.17" duration="129.00" routeLength="1495.00" waitingTime="0.00" waitingCount="0" stopTime="0.00" timeLoss="30.38" rerouteNo="0" devices="tripinfo_f_0_0.15 emissions_f_0_0.15" vType="DEFAULT_VEHTYPE" speedFactor="1.10" vaporized="">
        <emissions CO_abs="4506.609467" CO2_abs="370906.794444" HC_abs="28.890776" PMx_abs="5.892485" NOx_abs="145.884426" fuel_abs="118302.286753" electricity_abs="0"/>
    </tripinfo>
    <tripinfo id="f_0_1.10" depart="85.00" departLane="C4C3_0" departPos="5.10" departSpeed="0.00" departDelay="0.00" arrival="228.00" arrivalLane="C2C1_0" arrivalPos="492.80" arrivalSpeed="11.98" duration="143.00" routeLength="1495.00" waitingTime="12.00" waitingCount="1" stopTime="0.00" timeLoss="26.81" rerouteNo="0" devices="tripinfo_f_0_1.10 emissions_f_0_1.10" vType="DEFAULT_VEHTYPE" speedFactor="0.93" vaporized="">
        <emissions CO_abs="5636.344023" CO2_abs="362599.737385" HC_abs="33.593798" PMx_abs="5.262286" NOx_abs="138.761437" fuel_abs="115654.117928" electricity_abs="0"/>
    </tripinfo>
    <tripinfo id="f_0_1.11" depart="88.00" departLane="C4C3_0" departPos="5.10" departSpeed="0.00" departDelay="1.00" arrival="230.00" arrivalLane="C2C1_0" arrivalPos="492.80" arrivalSpeed="12.95" duration="142.00" routeLength="1495.00" waitingTime="10.00" waitingCount="1" stopTime="0.00" timeLoss="34.06" rerouteNo="0" devices="tripinfo_f_0_1.11 emissions_f_0_1.11" vType="DEFAULT_VEHTYPE" speedFactor="1.01" vaporized="">
        <emissions CO_abs="6219.532610" CO2_abs="377419.192446" HC_abs="36.702472" PMx_abs="6.177752" NOx_abs="149.302106" fuel_abs="120380.301381" electricity_abs="0"/>
    </tripinfo>
    <tripinfo id="f_0_1.12" depart="91.00" departLane="C4C3_0" departPos="5.10" departSpeed="0.00" departDelay="1.00" arrival="231.00" arrivalLane="C2C1_0" arrivalPos="492.80" arrivalSpeed="14.06" duration="140.00" routeLength="1495.00" waitingTime="10.00" waitingCount="1" stopTime="0.00" timeLoss="34.13" rerouteNo="0" devices="tripinfo_f_0_1.12 emissions_f_0_1.12" vType="DEFAULT_VEHTYPE" speedFactor="1.02" vaporized="">
        <emissions CO_abs="6519.918647" CO2_abs="396115.074195" HC_abs="38.601582" PMx_abs="6.588779" NOx_abs="157.562954" fuel_abs="126343.334434" electricity_abs="0"/>
    </tripinfo>
    <tripinfo id="f_0_1.13" depart="96.00" departLane="C4C3_0" departPos="5.10" departSpeed="0.00" departDelay="0.00" arrival="235.00" arrivalLane="C2C1_0" arrivalPos="492.80" arrivalSpeed="12.05" duration="139.00" routeLength="1495.00" waitingTime="3.00" waitingCount="1" stopTime="0.00" timeLoss="19.07" rerouteNo="0" devices="tripinfo_f_0_1.13 emissions_f_0_1.13" vType="DEFAULT_VEHTYPE" speedFactor="0.90" vaporized="">
        <emissions CO_abs="4455.220952" CO2_abs="329708.923198" HC_abs="27.590634" PMx_abs="4.643150" NOx_abs="125.468462" fuel_abs="105163.067124" electricity_abs="0"/>
    </tripinfo>
    <tripinfo id="f_1_3.0" depart="152.00" departLane="C0C1_0" departPos="5.10" departSpeed="0.00" departDelay="0.00" arrival="273.00" arrivalLane="C2C3_0" arrivalPos="492.80" arrivalSpeed="13.22" duration="121.00" routeLength="1495.00" waitingTime="0.00" waitingCount="0" stopTime="0.00" timeLoss="7.71" rerouteNo="0" devices="tripinfo_f_1_3.0 emissions_f_1_3.0" vType="DEFAULT_VEHTYPE" speedFactor="0.96" vaporized="">
        <emissions CO_abs="2311.943350" CO2_abs="292300.310503" HC_abs="16.532627" PMx_abs="3.466548" NOx_abs="105.183732" fuel_abs="93231.086195" electricity_abs="0"/>
    </tripinfo>
    <tripinfo id="f_1_3.1" depart="160.00" departLane="C0C1_0" departPos="5.10" departSpeed="0.00" departDelay="0.00" arrival="274.00" arrivalLane="C2C3_0" arrivalPos="492.80" arrivalSpeed="13.61" duration="114.00" routeLength="1495.00" waitingTime="0.00" waitingCount="0" stopTime="0.00" timeLoss="10.73" rerouteNo="0" devices="tripinfo_f_1_3.1 emissions_f_1_3.1" vType="DEFAULT_VEHTYPE" speedFactor="1.04" vaporized="">
        <emissions CO_abs="2630.062706" CO2_abs="293140.451645" HC_abs="18.074490" PMx_abs="4.048638" NOx_abs="109.420203" fuel_abs="93498.557996" electricity_abs="0"/>
    </tripinfo>
    <tripinfo id="f_1_2.0" depart="153.00" departLane="E2D2_0" departPos="5.10" departSpeed="0.00" departDelay="0.00" arrival="279.00" arrivalLane="C2B2_0" arrivalPos="492.80" arrivalSpeed="15.03" duration="126.00" routeLength="1495.00" waitingTime="12.00" waitingCount="1" stopTime="0.00" timeLoss="27.04" rerouteNo="0" devices="tripinfo_f_1_2.0 emissions_f_1_2.0" vType="DEFAULT_VEHTYPE" speedFactor="1.09" vaporized="">
        <emissions CO_abs="5347.537545" CO2_abs="358910.179243" HC_abs="31.802984" PMx_abs="5.509253" NOx_abs="136.896686" fuel_abs="114476.844597" electricity_abs="0"/>
    </tripinfo>
    <tripinfo id="f_1_0.0" depart="155.00" departLane="A2B2_0" departPos="5.10" departSpeed="0.00" departDelay="0.00" arrival="281.00" arrivalLane="C2D2_0" arrivalPos="492.80" arrivalSpeed="13.14" duration="126.00" routeLength="1495.00" waitingTime="8.00" waitingCount="1" stopTime="0.00" timeLoss="21.76" rerouteNo="0" devices="tripinfo_f_1_0.0 emissions_f_1_0.0" vType="DEFAULT_VEHTYPE" speedFactor="1.04" vaporized="">
        <emissions CO_abs="4763.814103" CO2_abs="342861.117932" HC_abs="29.037010" PMx_abs="5.207272" NOx_abs="131.304128" fuel_abs="109357.722357" electricity_abs="0"/>
    </tripinfo>
    <tripinfo id="f_1_0.1" depart="162.00" departLane="A2B2_0" departPos="5.10" departSpeed="0.00" departDelay="0.00" arrival="283.00" arrivalLane="C2D2_0" arrivalPos="492.80" arrivalSpeed="13.83" duration="121.00" routeLength="1495.00" waitingTime="5.00" waitingCount="1" stopTime="0.00" timeLoss="21.36" rerouteNo="0" devices="tripinfo_f_1_0.1 emissions_f_1_0.1" vType="DEFAULT_VEHTYPE" speedFactor="1.09" vaporized="">
        <emissions CO_abs="4527.026841" CO2_abs="348590.729077" HC_abs="28.061333" PMx_abs="5.372995" NOx_abs="133.582635" fuel_abs="111184.938865" electricity_abs="0"/>
    </tripinfo>
    <tripinfo id="f_1_2.1" depart="163.00" departLane="E2D2_0" departPos="5.10" departSpeed="0.00" departDelay="0.00" arrival="292.00" arrivalLane="C2B2_0" arrivalPos="492.80" arrivalSpeed="11.74" duration="129.00" routeLength="1495.00" waitingTime="0.00" waitingCount="0" stopTime="0.00" timeLoss="8.98" rerouteNo="0" devices="tripinfo_f_1_2.1 emissions_f_1_2.1" vType="DEFAULT_VEHTYPE" speedFactor="0.90" vaporized="">
        <emissions CO_abs="2823.748902" CO2_abs="290738.323884" HC_abs="19.244981" PMx_abs="3.687983" NOx_abs="107.613897" fuel_abs="92732.890983" electricity_abs="0"/>
    </tripinfo>
    <tripinfo id="f_1_3.2" depart="163.00" departLane="C0C1_0" departPos="5.10" departSpeed="0.00" departDelay="1.00" arrival="296.00" arrivalLane="C2C3_0" arrivalPos="492.80" arrivalSpeed="13.20" duration="133.00" routeLength="1495.00" waitingTime="12.00" waitingCount="1" stopTime="0.00" timeLoss="24.37" rerouteNo="0" devices="tripinfo_f_1_3.2 emissions_f_1_3.2" vType="DEFAULT_VEHTYPE" speedFactor="1.00" vaporized="">