<?xml version="1.0" encoding="UTF-8"?>

<!-- generated on 2024-08-22 13:37:10 by Eclipse SUMO sumo Version 1.17.0
<configuration xmlns:xsi="http://www.w3.org/2001/XMLSchema-instance" xsi:noNamespaceSchemaLocation="http://sumo.dlr.de/xsd/sumoConfiguration.xsd">

    <input>
        <net-file value="single_neat.net.xml"/>
        <route-files value="single_1.rou.xml"/>
    </input>

    <output>
        <tripinfo-output value="emissions_test\z14_data_All_stepThreshold_3000_gen_80_1emissionssingle.xml"/>
    </output>

    <processing>
        <time-to-teleport value="-1"/>
    </processing>

    <report>
        <no-warnings value="true"/>
    </report>

    <emissions>
        <device.emissions.probability value="1.0"/>
    </emissions>

    <traci_server>
        <remote-port value="58247"/>
    </traci_server>

</configuration>
-->

<tripinfos xmlns:xsi="http://www.w3.org/2001/XMLSchema-instance" xsi:noNamespaceSchemaLocation="http://sumo.dlr.de/xsd/tripinfo_file.xsd">
    <tripinfo id="f_0_0.0" depart="2.00" departLane="A2B2_0" departPos="5.10" departSpeed="0.00" departDelay="0.00" arrival="139.00" arrivalLane="C2D2_0" arrivalPos="492.80" arrivalSpeed="13.67" duration="137.00" routeLength="1495.00" waitingTime="23.00" waitingCount="1" stopTime="0.00" timeLoss="35.18" rerouteNo="0" devices="tripinfo_f_0_0.0 emissions_f_0_0.0" vType="DEFAULT_VEHTYPE" speedFactor="1.06" vaporized="">
        <emissions CO_abs="7138.316388" CO2_abs="382097.878673" HC_abs="40.664033" PMx_abs="6.299217" NOx_abs="149.858787" fuel_abs="121873.104202" electricity_abs="0"/>
    </tripinfo>
    <tripinfo id="f_0_0.1" depart="5.00" departLane="A2B2_0" departPos="5.10" departSpeed="0.00" departDelay="0.00" arrival="146.00" arrivalLane="C2D2_0" arrivalPos="492.80" arrivalSpeed="12.76" duration="141.00" routeLength="1495.00" waitingTime="11.00" waitingCount="1" stopTime="0.00" timeLoss="25.68" rerouteNo="0" devices="tripinfo_f_0_0.1 emissions_f_0_0.1" vType="DEFAULT_VEHTYPE" speedFactor="0.94" vaporized="">
        <emissions CO_abs="5377.110839" CO2_abs="352936.351280" HC_abs="31.891572" PMx_abs="4.987252" NOx_abs="133.466740" fuel_abs="112572.003600" electricity_abs="0"/>
    </tripinfo>
    <tripinfo id="f_0_0.2" depart="10.00" departLane="A2B2_0" departPos="5.10" departSpeed="0.00" departDelay="0.00" arrival="148.00" arrivalLane="C2D2_0" arrivalPos="492.80" arrivalSpeed="12.82" duration="138.00" routeLength="1495.00" waitingTime="11.00" waitingCount="1" stopTime="0.00" timeLoss="30.64" rerouteNo="0" devices="tripinfo_f_0_0.2 emissions_f_0_0.2" vType="DEFAULT_VEHTYPE" speedFactor="1.01" vaporized="">
        <emissions CO_abs="5649.670104" CO2_abs="361891.922339" HC_abs="33.662885" PMx_abs="5.602741" NOx_abs="140.642192" fuel_abs="115427.950668" electricity_abs="0"/>
    </tripinfo>
    <tripinfo id="f_0_0.3" depart="16.00" departLane="A2B2_0" departPos="5.10" departSpeed="0.00" departDelay="0.00" arrival="149.00" arrivalLane="C2D2_0" arrivalPos="492.80" arrivalSpeed="13.89" duration="133.00" routeLength="1495.00" waitingTime="10.00" waitingCount="1" stopTime="0.00" timeLoss="33.39" rerouteNo="0" devices="tripinfo_f_0_0.3 emissions_f_0_0.3" vType="DEFAULT_VEHTYPE" speedFactor="1.08" vaporized="">
        <emissions CO_abs="6036.940225" CO2_abs="384279.102468" HC_abs="36.140054" PMx_abs="6.327208" NOx_abs="151.659721" fuel_abs="122568.102442" electricity_abs="0"/>
    </tripinfo>
    <tripinfo id="f_0_0.4" depart="20.00" departLane="A2B2_0" departPos="5.10" departSpeed="0.00" departDelay="0.00" arrival="151.00" arrivalLane="C2D2_0" arrivalPos="492.80" arrivalSpeed="13.59" duration="131.00" routeLength="1495.00" waitingTime="8.00" waitingCount="1" stopTime="0.00" timeLoss="26.03" rerouteNo="0" devices="tripinfo_f_0_0.4 emissions_f_0_0.4" vType="DEFAULT_VEHTYPE" speedFactor="1.03" vaporized="">
        <emissions CO_abs="5183.958262" CO2_abs="354823.367869" HC_abs="31.189296" PMx_abs="5.469265" NOx_abs="136.834418" fuel_abs="113173.210092" electricity_abs="0"/>
    </tripinfo>
    <tripinfo id="f_0_1.0" depart="27.00" departLane="C4C3_0" departPos="5.10" departSpeed="0.00" departDelay="0.00" arrival="155.00" arrivalLane="C2C1_0" arrivalPos="492.80" arrivalSpeed="13.61" duration="128.00" routeLength="1495.00" waitingTime="9.00" waitingCount="1" stopTime="0.00" timeLoss="24.19" rerouteNo="0" devices="tripinfo_f_0_1.0 emissions_f_0_1.0" vType="DEFAULT_VEHTYPE" speedFactor="1.05" vaporized="">
        <emissions CO_abs="5077.759472" CO2_abs="348173.715941" HC_abs="30.495576" PMx_abs="5.301595" NOx_abs="133.208705" fuel_abs="111052.337416" electricity_abs="0"/>
    </tripinfo>
    <tripinfo id="f_0_2.0" depart="45.00" departLane="E2D2_0" departPos="5.10" departSpeed="0.00" departDelay="0.00" arrival="170.00" arrivalLane="C2B2_0" arrivalPos="492.80" arrivalSpeed="14.15" duration="125.00" routeLength="1495.00" waitingTime="8.00" waitingCount="1" stopTime="0.00" timeLoss="21.76" rerouteNo="0" devices="tripinfo_f_0_2.0 emissions_f_0_2.0" vType="DEFAULT_VEHTYPE" speedFactor="1.05" vaporized="">
        <emissions CO_abs="4593.942727" CO2_abs="349263.798203" HC_abs="28.089043" PMx_abs="5.108563" NOx_abs="131.879228" fuel_abs="111399.952023" electricity_abs="0"/>
    </tripinfo>
    <tripinfo id="f_0_2.1" depart="50.00" departLane="E2D2_0" departPos="5.10" departSpeed="0.00" departDelay="0.00" arrival="172.00" arrivalLane="C2B2_0" arrivalPos="492.80" arrivalSpeed="15.16" duration="122.00" routeLength="1495.00" waitingTime="7.00" waitingCount="1" stopTime="0.00" timeLoss="25.28" rerouteNo="0" devices="tripinfo_f_0_2.1 emissions_f_0_2.1" vType="DEFAULT_VEHTYPE" speedFactor="1.12" vaporized="">
        <emissions CO_abs="4834.091162" CO2_abs="355247.024581" HC_abs="29.292746" PMx_abs="5.474816" NOx_abs="135.719535" fuel_abs="113308.109482" electricity_abs="0"/>
    </tripinfo>
    <tripinfo id="f_0_0.5" depart="25.00" departLane="A2B2_0" departPos="5.10" departSpeed="0.00" departDelay="0.00" arrival="179.00" arrivalLane="C2D2_0" arrivalPos="492.80" arrivalSpeed="10.52" duration="154.00" routeLength="1495.00" waitingTime="10.00" waitingCount="1" stopTime="0.00" timeLoss="24.28" rerouteNo="0" devices="tripinfo_f_0_0.5 emissions_f_0_0.5" vType="DEFAULT_VEHTYPE" speedFactor="0.83" vaporized="">
        <emissions CO_abs="5518.827877" CO2_abs="341559.279493" HC_abs="32.834086" PMx_abs="4.701933" NOx_abs="130.175077" fuel_abs="108943.479893" electricity_abs="0"/>
    </tripinfo>
    <tripinfo id="f_0_0.6" depart="34.00" departLane="A2B2_0" departPos="5.10" departSpeed="0.00" departDelay="0.00" arrival="181.00" arrivalLane="C2D2_0" arrivalPos="492.80" arrivalSpeed="11.05" duration="147.00" routeLength="1495.00" waitingTime="8.00" waitingCount="1" stopTime="0.00" timeLoss="25.10" rerouteNo="0" devices="tripinfo_f_0_0.6 emissions_f_0_0.6" vType="DEFAULT_VEHTYPE" speedFactor="0.89" vaporized="">
        <emissions CO_abs="5263.730075" CO2_abs="348144.921784" HC_abs="31.758530" PMx_abs="4.812222" NOx_abs="132.262075" fuel_abs="111043.807560" electricity_abs="0"/>
    </tripinfo>
    <tripinfo id="f_0_0.7" depart="41.00" departLane="A2B2_0" departPos="5.10" departSpeed="0.00" departDelay="0.00" arrival="183.00" arrivalLane="C2D2_0" arrivalPos="492.80" arrivalSpeed="12.84" duration="142.00" routeLength="1495.00" waitingTime="3.00" waitingCount="1" stopTime="0.00" timeLoss="26.41" rerouteNo="0" devices="tripinfo_f_0_0.7 emissions_f_0_0.7" vType="DEFAULT_VEHTYPE" speedFactor="0.94" vaporized="">
        <emissions CO_abs="5702.430464" CO2_abs="380485.978695" HC_abs="34.673581" PMx_abs="6.113423" NOx_abs="150.750767" fuel_abs="121358.202705" electricity_abs="0"/>
    </tripinfo>
    <tripinfo id="f_0_0.8" depart="44.00" departLane="A2B2_0" departPos="5.10" departSpeed="0.00" departDelay="0.00" arrival="184.00" arrivalLane="C2D2_0" arrivalPos="492.80" arrivalSpeed="15.09" duration="140.00" routeLength="1495.00" waitingTime="2.00" waitingCount="1" stopTime="0.00" timeLoss="41.11" rerouteNo="0" devices="tripinfo_f_0_0.8 emissions_f_0_0.8" vType="DEFAULT_VEHTYPE" speedFactor="1.09" vaporized="">
        <emissions CO_abs="6533.537122" CO2_abs="420323.631769" HC_abs="39.254004" PMx_abs="7.097192" NOx_abs="168.680407" fuel_abs="134064.386881" electricity_abs="0"/>
    </tripinfo>
    <tripinfo id="f_0_1.1" depart="42.00" departLane="C4C3_0" departPos="5.10" departSpeed="0.00" departDelay="0.00" arrival="193.00" arrivalLane="C2C1_0" arrivalPos="492.80" arrivalSpeed="11.89" duration="151.00" routeLength="1495.00" waitingTime="10.00" waitingCount="1" stopTime="0.00" timeLoss="24.47" rerouteNo="0" devices="tripinfo_f_0_1.1 emissions_f_0_1.1" vType="DEFAULT_VEHTYPE" speedFactor="0.86" vaporized="">
        <emissions CO_abs="5632.530326" CO2_abs="346647.166974" HC_abs="33.531188" PMx_abs="5.006112" NOx_abs="133.660807" fuel_abs="110566.049061" electricity_abs="0"/>
    </tripinfo>
    <tripinfo id="f_0_1.2" depart="45.00" departLane="C4C3_0" departPos="5.10" departSpeed="0.00" departDelay="0.00" arrival="194.00" arrivalLane="C2C1_0" arrivalPos="492.80" arrivalSpeed="13.02" duration="149.00" routeLength="1495.00" waitingTime="10.00" waitingCount="1" stopTime="0.00" timeLoss="44.01" rerouteNo="0" devices="tripinfo_f_0_1.2 emissions_f_0_1.2" vType="DEFAULT_VEHTYPE" speedFactor="1.03" vaporized="">
        <emissions CO_abs="6802.789106" CO2_abs="401435.262830" HC_abs="40.274674" PMx_abs="6.668412" NOx_abs="160.970197" fuel_abs="128040.321674" electricity_abs="0"/>
    </tripinfo>
    <tripinfo id="f_0_1.3" depart="60.00" departLane="C4C3_0" departPos="5.10" departSpeed="0.00" departDelay="0.00" arrival="196.00" arrivalLane="C2C1_0" arrivalPos="492.80" arrivalSpeed="13.17" duration="136.00" routeLength="1495.00" waitingTime="7.00" waitingCount="1" stopTime="0.00" timeLoss="27.06" rerouteNo="0" devices="tripinfo_f_0_1.3 emissions_f_0_1.3" vType="DEFAULT_VEHTYPE" speedFactor="0.99" vaporized="">
        <emissions CO_abs="5926.149560" CO2_abs="384167.079217" HC_abs="35.679737" PMx_abs="6.291602" NOx_abs="152.413156" fuel_abs="122532.294271" electricity_abs="0"/>
    </tripinfo>
    <tripinfo id="f_0_1.4" depart="85.00" departLane="C4C3_0" departPos="5.10" departSpeed="0.00" departDelay="0.00" arrival="198.00" arrivalLane="C2C1_0" arrivalPos="492.80" arrivalSpeed="15.75" duration="113.00" routeLength="1495.00" waitingTime="0.00" waitingCount="0" stopTime="0.00" timeLoss="19.29" rerouteNo="0" devices="tripinfo_f_0_1.4 emissions_f_0_1.4" vType="DEFAULT_VEHTYPE" speedFactor="1.16" vaporized="">
        <emissions CO_abs="3499.612893" CO2_abs="331567.777099" HC_abs="23.171511" PMx_abs="5.135743" NOx_abs="127.353446" fuel_abs="105754.833712" electricity_abs="0"/>
    </tripinfo>
    <tripinfo id="f_0_3.0" depart="85.00" departLane="C0C1_0" departPos="5.10" departSpeed="0.00" departDelay="0.00" arrival="199.00" arrivalLane="C2C3_0" arrivalPos="492.80" arrivalSpeed="14.06" duration="114.00" routeLength="1495.00" waitingTime="0.00" waitingCount="0" stopTime="0.00" timeLoss="8.01" rerouteNo="0" devices="tripinfo_f_0_3.0 emissions_f_0_3.0" vType="DEFAULT_VEHTYPE" speedFactor="1.02" vaporized="">
        <emissions CO_abs="2416.700636" CO2_abs="287164.368991" HC_abs="16.826030" PMx_abs="3.752909" NOx_abs="105.046594" fuel_abs="91592.619777" electricity_abs="0"/>
    </tripinfo>
    <tripinfo id="f_0_1.5" depart="88.00" departLane="C4C3_0" departPos="5.10" departSpeed="0.00" departDelay="1.00" arrival="204.00" arrivalLane="C2C1_0" arrivalPos="492.80" arrivalSpeed="13.09" duration="116.00" routeLength="1495.00" waitingTime="0.00" waitingCount="0" stopTime="0.00" timeLoss="8.79" rerouteNo="0" devices="tripinfo_f_0_1.5 emissions_f_0_1.5" vType="DEFAULT_VEHTYPE" speedFactor="1.01" vaporized="">
        <emissions CO_abs="2522.991391" CO2_abs="298726.121676" HC_abs="17.464555" PMx_abs="3.816238" NOx_abs="108.658254" fuel_abs="95280.416619" electricity_abs="0"/>
    </tripinfo>
    <tripinfo id="f_0_2.2" depart="67.00" departLane="E2D2_0" departPos="5.10" departSpeed="0.00" departDelay="0.00" arrival="213.00" arrivalLane="C2B2_0" arrivalPos="492.80" arrivalSpeed="11.88" duration="146.00" routeLength="1495.00" waitingTime="16.00" waitingCount="1" stopTime="0.00" timeLoss="29.41" rerouteNo="0" devices="tripinfo_f_0_2.2 emissions_f_0_2.2" vType="DEFAULT_VEHTYPE" speedFactor="0.93" vaporized="">
        <emissions CO_abs="6109.856386" CO2_abs="363415.718003" HC_abs="35.648589" PMx_abs="5.265460" NOx_abs="138.686288" fuel_abs="115914.700763" electricity_abs="0"/>
    </tripinfo>
    <tripinfo id="f_0_0.9" depart="71.00" departLane="A2B2_0" departPos="5.10" departSpeed="0.00" departDelay="0.00" arrival="215.00" arrivalLane="C2D2_0" arrivalPos="492.80" arrivalSpeed="11.15" duration="144.00" routeLength="1495.00" waitingTime="7.00" waitingCount="1" stopTime="0.00" timeLoss="21.35" rerouteNo="0" devices="tripinfo_f_0_0.9 emissions_f_0_0.9" vType="DEFAULT_VEHTYPE" speedFactor="0.88" vaporized="">
        <emissions CO_abs="5099.761143" CO2_abs="339844.954012" HC_abs="30.858466" PMx_abs="4.875804" NOx_abs="130.402007" fuel_abs="108396.218321" electricity_abs="0"/>
    </tripinfo>
    <tripinfo id="f_0_2.3" depart="97.00" departLane="E2D2_0" departPos="5.10" departSpeed="0.00" departDelay="0.00" arrival="215.00" arrivalLane="C2B2_0" arrivalPos="492.80" arrivalSpeed="14.99" duration="118.00" routeLength="1495.00" waitingTime="1.00" waitingCount="1" stopTime="0.00" timeLoss="22.04" rerouteNo="0" devices="tripinfo_f_0_2.3 emissions_f_0_2.3" vType="DEFAULT_VEHTYPE" speedFactor="1.13" vaporized="">
        <emissions CO_abs="3625.964230" CO2_abs="335395.319165" HC_abs="23.281503" PMx_abs="4.770822" NOx_abs="125.516090" fuel_abs="106976.145351" electricity_abs="0"/>
    </tripinfo>
    <tripinfo id="f_0_0.10" depart="74.00" departLane="A2B2_0" departPos="5.10" departSpeed="0.00" departDelay="2.00" arrival="217.00" arrivalLane="C2D2_0" arrivalPos="492.80" arrivalSpeed="12.73" duration="143.00" routeLength="1495.00" waitingTime="6.00" waitingCount="1" stopTime="0.00" timeLoss="28.13" rerouteNo="0" devices="tripinfo_f_0_0.10 emissions_f_0_0.10" vType="DEFAULT_VEHTYPE" speedFactor="0.94" vaporized="">
        <emissions CO_abs="5903.459075" CO2_abs="380563.105861" HC_abs="35.584653" PMx_abs="6.133920" NOx_abs="150.965039" fuel_abs="121382.901824" electricity_abs="0"/>
    </tripinfo>
    <tripinfo id="f_0_0.11" depart="81.00" departLane="A2B2_0" departPos="5.10" departSpeed="0.00" departDelay="0.00" arrival="219.00" arrivalLane="C2D2_0" arrivalPos="492.80" arrivalSpeed="11.92" duration="138.00" routeLength="1495.00" waitingTime="4.00" waitingCount="1" stopTime="0.00" timeLoss="22.41" rerouteNo="0" devices="tripinfo_f_0_0.11 emissions_f_0_0.11" vType="DEFAULT_VEHTYPE" speedFactor="0.94" vaporized="">
        <emissions CO_abs="4840.546219" CO2_abs="346498.806882" HC_abs="29.639526" PMx_abs="5.172848" NOx_abs="133.665858" fuel_abs="110518.072290" electricity_abs="0"/>
    </tripinfo>
    <tripinfo id="f_0_3.1" depart="88.00" departLane="C0C1_0" departPos="5.10" departSpeed="0.00" departDelay="1.00" arrival="225.00" arrivalLane="C2C3_0" arrivalPos="492.80" arrivalSpeed="12.84" duration="137.00" routeLength="1495.00" waitingTime="11.00" waitingCount="1" stopTime="0.00" timeLoss="25.68" rerouteNo="0" devices="tripinfo_f_0_3.1 emissions_f_0_3.1" vType="DEFAULT_VEHTYPE" speedFactor="0.97" vaporized="">
        <emissions CO_abs="5123.425092" CO2_abs="345842.847921" HC_abs="30.500039" PMx_abs="4.886849" NOx_abs="130.464870" fuel_abs="110309.358654" electricity_abs="0"/>
    </tripinfo>
    <tripinfo id="f_0_1.6" depart="91.00" departLane="C4C3_0" departPos="5.10" departSpeed="0.00" departDelay="1.00" arrival="228.00" arrivalLane="C2C1_0" arrivalPos="492.80" arrivalSpeed="11.17" duration="137.00" routeLength="1495.00" waitingTime="1.00" waitingCount="1" stopTime="0.00" timeLoss="15.65" rerouteNo="0" devices="tripinfo_f_0_1.6 emissions_f_0_1.6" vType="DEFAULT_VEHTYPE" speedFactor="0.89" vaporized="">
        <emissions CO_abs="3847.760563" CO2_abs="321349.673733" HC_abs="24.409127" PMx_abs="4.165723" NOx_abs="119.600286" fuel_abs="102496.940227" electricity_abs="0"/>
    </tripinfo>
    <tripinfo id="f_0_1.7" depart="96.00" departLane="C4C3_0" departPos="5.10" departSpeed="0.00" departDelay="0.00" arrival="230.00" arrivalLane="C2C1_0" arrivalPos="492.80" arrivalSpeed="12.07" duration="134.00" routeLength="1495.00" waitingTime="1.00" waitingCount="1" stopTime="0.00" timeLoss="19.89" rerouteNo="0" devices="tripinfo_f_0_1.7 emissions_f_0_1.7" vType="DEFAULT_VEHTYPE" speedFactor="0.95" vaporized="">
        <emissions CO_abs="4176.802664" CO2_abs="340691.446642" HC_abs="26.541397" PMx_abs="5.020156" NOx_abs="131.237428" fuel_abs="108665.471869" electricity_abs="0"/>
    </tripinfo>
    <tripinfo id="f_0_3.2" depart="95.00" departLane="C0C1_0" departPos="5.10" departSpeed="0.00" departDelay="0.00" arrival="231.00" arrivalLane="C2C3_0" arrivalPos="492.80" arrivalSpeed="11.37" duration="136.00" routeLength="1495.00" waitingTime="0.00" waitingCount="0" stopTime="0.00" timeLoss="11.94" rerouteNo="0" devices="tripinfo_f_0_3.2 emissions_f_0_3.2" vType="DEFAULT_VEHTYPE" speedFactor="0.87" vaporized="">
        <emissions CO_abs="3260.636115" CO2_abs="315577.834760" HC_abs="21.806147" PMx_abs="3.880759" NOx_abs="116.443201" fuel_abs="100655.860081" electricity_abs="0"/>
    </tripinfo>
    <tripinfo id="f_1_2.0" depart="153.00" departLane="E2D2_0" departPos="5.10" departSpeed="0.00" departDelay="0.00" arrival="260.00" arrivalLane="C2B2_0" arrivalPos="492.80" arrivalSpeed="15.99" duration="107.00" routeLength="1495.00" waitingTime="0.00" waitingCount="0" stopTime="0.00" timeLoss="15.04" rerouteNo="0" devices="tripinfo_f_1_2.0 emissions_f_1_2.0" vType="DEFAULT_VEHTYPE" speedFactor="1.18" vaporized="">
        <emissions CO_abs="3486.735273" CO2_abs="326302.868373" HC_abs="22.402679" PMx_abs="4.873868" NOx_abs="122.131070" fuel_abs="104075.815434" electricity_abs="0"/>
    </tripinfo>
    <tripinfo id="f_0_0.12" depart="95.00" departLane="A2B2_0" departPos="5.10" departSpeed="0.00" departDelay="0.00" arrival="272.00" arrivalLane="C2D2_0" arrivalPos="492.80" arrivalSpeed="10.84" duration="177.00" routeLength="1495.00" waitingTime="33.00" waitingCount="1" stopTime="0.00" timeLoss="46.58" rerouteNo="0" devices="tripinfo_f_0_0.12 emissions_f_0_0.12" vType="DEFAULT_VEHTYPE" speedFactor="0.83" vaporized="">
        <emissions CO_abs="9463.520976" CO2_abs="407284.880166" HC_abs="52.427123" PMx_abs="6.420343" NOx_abs="161.025186" fuel_abs="129908.120789" electricity_abs="0"/>
    </tripinfo>
    <tripinfo id="f_0_0.13" depart="98.00" departLane="A2B2_0" departPos="5.10" departSpeed="0.00" departDelay="2.00" arrival="274.00" arrivalLane="C2D2_0" arrivalPos="492.80" arrivalSpeed="11.62" duration="176.00" routeLength="1495.00" waitingTime="31.00" waitingCount="1" stopTime="0.00" timeLoss="58.30" rerouteNo="0" devices="tripinfo_f_0_0.13 emissions_f_0_0.13" vType="DEFAULT_VEHTYPE" speedFactor="0.92" vaporized="">
        <emissions CO_abs="10220.984792" CO2_abs="445834.704447" HC_abs="56.826285" PMx_abs="7.533539" NOx_abs="179.787476" fuel_abs="142203.342837" electricity_abs="0"/>
    </tripinfo>
    <tripinfo id="f_1_0.0" depart="155.00" departLane="A2B2_0" departPos="5.10" departSpeed="0.00" departDelay="0.00" arrival="276.00" arrivalLane="C2D2_0" arrivalPos="492.80" arrivalSpeed="14.93" duration="121.00" routeLength="1495.00" waitingTime="0.00" waitingCount="0" stopTime="0.00" timeLoss="27.05" rerouteNo="0" devices="tripinfo_f_1_0.0 emissions_f_1_0.0" vType="DEFAULT_VEHTYPE" speedFactor="1.15" vaporized="">
        <emissions CO_abs="4256.337748" CO2_abs="355373.170562" HC_abs="27.161105" PMx_abs="5.522138" NOx_abs="136.941304" fuel_abs="113347.944242" electricity_abs="0"/>
    </tripinfo>
    <tripinfo id="f_1_3.0" depart="152.00" departLane="C0C1_0" departPos="5.10" departSpeed="0.00" departDelay="0.00" arrival="282.00" arrivalLane="C2C3_0" arrivalPos="492.80" arrivalSpeed="12.71" duration="130.00" routeLength="1495.00" waitingTime="0.00" waitingCount="0" stopTime="0.00" timeLoss="13.59" rerouteNo="0" devices="tripinfo_f_1_3.0 emissions_f_1_3.0" vType="DEFAULT_VEHTYPE" speedFactor="0.93" vaporized="">
        <emissions CO_abs="3548.535876" CO2_abs="308521.292468" HC_abs="22.889818" PMx_abs="4.299896" NOx_abs="116.452024" fuel_abs="98404.807387" electricity_abs="0"/>
    </tripinfo>
    <tripinfo id="f_1_3.1" depart="160.00" departLane="C0C1_0" departPos="5.10" departSpeed="0.00" departDelay="0.00" arrival="283.00" arrivalLane="C2C3_0" arrivalPos="492.80" arrivalSpeed="13.28" duration="123.00" routeLength="1495.00" waitingTime="0.00" waitingCount="0" stopTime="0.00" timeLoss="15.86" rerouteNo="0" devices="tripinfo_f_1_3.1 emissions_f_1_3.1" vType="DEFAULT_VEHTYPE" speedFactor="1.01" vaporized="">
        <emissions CO_abs="3755.821907" CO2_abs="332438.083202" HC_abs="24.360323" PMx_abs="4.970793" NOx_abs="127.595112" fuel_abs="106032.755770" electricity_abs="0"/>
    </tripinfo>
    <tripinfo id="f_1_3.2" depart="163.00" departLane="C0C1_0" departPos="5.10" departSpeed="0.00" departDelay="1.00" arrival="285.00" arrivalLane="C2C3_0" arrivalPos="492.80" arrivalSpeed="15.81" duration="122.00" routeLength="1495.00" waitingTime="0.00" waitingCount="0" stopTime="0.00" timeLoss="29.66" rerouteNo="0" devices="tripinfo_f_1_3.2 emissions_f_1_3.2" vType="DEFAULT_VEHTYPE" speedFactor="1.17" vaporized="">
        <emissions CO_abs="4740.854805" CO2_abs="375754.644056" HC_abs="29.868406" PMx_abs="6.225550" NOx_abs="148.644449" fuel_abs="119848.352317" electricity_abs="0"/>
    </tripinfo>
    <tripinfo id="f_1_3.3" depart="166.00" departLane="C0C1_0" departPos="5.10" departSpeed="0.00" departDelay="3.00" arrival="287.00" arrivalLane="C2C3_0" arrivalPos="492.80" arrivalSpeed="13.82" duration="121.00" routeLength="1495.00" waitingTime="0.00" waitingCount="0" stopTime="0.00" timeLoss="14.86" rerouteNo="0" devices="tripinfo_f_1_3.3 emissions_f_1_3.3" vType="DEFAULT_VEHTYPE" speedFactor="1.02" vaporized="">
        <emissions CO_abs="3665.185345" CO2_abs="346389.533369" HC_abs="24.069241" PMx_abs="5.160749" NOx_abs="132.807941" fuel_abs="110482.467614" electricity_abs="0"/>
    </tripinfo>
    <tripinfo id="f_1_3.4" depart="169.00" departLane="C0C1_0" departPos="5.10" departSpeed="0.00" departDelay="1.00" arrival="288.00" arrivalLane="C2C3_0" arrivalPos="492.80" arrivalSpeed="14.69" duration="119.00" routeLength="1495.00" waitingTime="0.00" waitingCount="0" stopTime="0.00" timeLoss="21.32" rerouteNo="0" devices="tripinfo_f_1_3.4 emissions_f_1_3.4" vType="DEFAULT_VEHTYPE" speedFactor="1.10" vaporized="">
        <emissions CO_abs="4231.015917" CO2_abs="367448.449496" HC_abs="27.489830" PMx_abs="5.954068" NOx_abs="144.374261" fuel_abs="117198.995310" electricity_abs="0"/>
    </tripinfo>
    <tripinfo id="f_1_1.0" depart="175.00" departLane="C4C3_0" departPos="5.10" departSpeed="0.00" departDelay="0.00" arrival="288.00" arrivalLane="C2C1_0" arrivalPos="492.80" arrivalSpeed="13.40" duration="113.00" routeLength="1495.00" waitingTime="0.00" waitingCount="0" stopTime="0.00" timeLoss="7.72" rerouteNo="0" devices="tripinfo_f_1_1.0 emissions_f_1_1.0" vType="DEFAULT_VEHTYPE" speedFactor="1.03" vaporized="">
        <emissions CO_abs="2376.354342" CO2_abs="286004.166149" HC_abs="16.741102" PMx_abs="3.825329" NOx_abs="105.294431" fuel_abs="91222.463990" electricity_abs="0"/>
    </tripinfo>
    <tripinfo id="f_1_3.5" depart="178.00" departLane="C0C1_0" departPos="5.10" departSpeed="0.00" departDelay="0.00" arrival="290.00" arrivalLane="C2C3_0" arrivalPos="492.80" arrivalSpeed="14.80" duration="112.00" routeLength="1495.00" waitingTime="0.00" waitingCount="0" stopTime="0.00" timeLoss="12.63" rerouteNo="0" devices="tripinfo_f_1_3.5 emissions_f_1_3.5" vType="DEFAULT_VEHTYPE" speedFactor="1.09" vaporized="">
        <emissions CO_abs="3122.215369" CO2_abs="328833.768795" HC_abs="21.194038" PMx_abs="4.845736" NOx_abs="124.231602" fuel_abs="104882.887939" electricity_abs="0"/>
    </tripinfo>
    <tripinfo id="f_1_1.1" depart="178.00" departLane="C4C3_0" departPos="5.10" departSpeed="0.00" departDelay="1.00" arrival="299.00" arrivalLane="C2C1_0" arrivalPos="492.80" arrivalSpeed="13.02" duration="121.00" routeLength="1495.00" waitingTime="0.00" waitingCount="0" stopTime="0.00" timeLoss="8.47" rerouteNo="0" devices="tripinfo_f_1_1.1 emissions_f_1_1.1" vType="DEFAULT_VEHTYPE" speedFactor="0.96" vaporized="">
        <emissions CO_abs="2714.001010" CO2_abs="294721.676586" HC_abs="18.791527" PMx_abs="3.924431" NOx_abs="109.742087" fuel_abs="94003.114921" electricity_abs="0"/>
    </tripinfo>
    <tripinfo id="f_1_1.2" depart="181.00" departLane="C4C3_0" departPos="5.10" departSpeed="0.00" departDelay="3.00" arrival="301.00" arrivalLane="C2C1_0" arrivalPos="492.80" arrivalSpeed="13.24" duration="120.00" routeLength="1495.00" waitingTime="0.00" waitingCount="0" stopTime="0.00" timeLoss="15.94" rerouteNo="0" devices="tripinfo_f_1_1.2 emissions_f_1_1.2" vType="DEFAULT_VEHTYPE" speedFactor="1.04" vaporized="">
        <emissions CO_abs="3297.372050" CO2_abs="317666.359066" HC_abs="22.029591" PMx_abs="4.710490" NOx_abs="121.693894" fuel_abs="101321.118752" electricity_abs="0"/>
    </tripinfo>
    <tripinfo id="f_1_2.1" depart="163.00" departLane="E2D2_0" departPos="5.10" departSpeed="0.00" departDelay="0.00" arrival="306.00" arrivalLane="C2B2_0" arrivalPos="492.80" arrivalSpeed="13.66" duration="143.00" routeLength="1495.00" waitingTime="21.00" waitingCount="1" stopTime="0.00" timeLoss="34.23" rerouteNo="0" devices="tripinfo_f_1_2.1 emissions_f_1_2.1" vType="DEFAULT_VEHTYPE" speedFactor="0.99" vaporized="">
        <emissions CO_abs="6567.544742" CO2_abs="375448.066316" HC_abs="37.686384" PMx_abs="5.605305" NOx_abs="143.437765" fuel_abs="119752.475191" electricity_abs="0"/>
    </tripinfo>
    <tripinfo id="f_1_2.2" depart="166.00" departLane="E2D2_0" departPos="5.10" departSpeed="0.00" departDelay="2.00" arrival="309.00" arrivalLane="C2B2_0" arrivalPos="492.80" arrivalSpeed="12.52" duration="143.00" routeLength="1495.00" waitingTime="18.00" waitingCount="1" stopTime="0.00" timeLoss="31.77" rerouteNo="0" devices="tripinfo_f_1_2.2 emissions_f_1_2.2" vType="DEFAULT_VEHTYPE" speedFactor="0.97" vaporized="">
        <emissions CO_abs="6462.812337" CO2_abs="374535.445801" HC_abs="37.545795" PMx_abs="5.728776" NOx_abs="144.707345" fuel_abs="119461.186680" electricity_abs="0"/>
    </tripinfo>
    <tripinfo id="f_1_2.3" depart="169.00" departLane="E2D2_0" departPos="5.10" departSpeed="0.00" departDelay="1.00" arrival="310.00" arrivalLane="C2B2_0" arrivalPos="492.80" arrivalSpeed="15.15" duration="141.00" routeLength="1495.00" waitingTime="17.00" waitingCount="1" stopTime="0.00" timeLoss="49.64" rerouteNo="0" devices="tripinfo_f_1_2.3 emissions_f_1_2.3" vType="DEFAULT_VEHTYPE" speedFactor="1.18" vaporized="">
        <emissions CO_abs="6987.382959" CO2_abs="400588.921624" HC_abs="40.652375" PMx_abs="6.611787" NOx_abs="158.405834" fuel_abs="127770.613564" electricity_abs="0"/>
    </tripinfo>
    <tripinfo id="f_1_2.4" depart="172.00" departLane="E2D2_0" departPos="5.10" departSpeed="0.00" departDelay="2.00" arrival="316.00" arrivalLane="C2B2_0" arrivalPos="492.80" arrivalSpeed="11.96" duration="144.00" routeLength="1495.00" waitingTime="5.00" waitingCount="2" stopTime="0.00" timeLoss="24.13" rerouteNo="0" devices="tripinfo_f_1_2.4 emissions_f_1_2.4" vType="DEFAULT_VEHTYPE" speedFactor="0.90" vaporized="">
        <emissions CO_abs="5417.891951" CO2_abs="366311.388850" HC_abs="32.895169" PMx_abs="5.296551" NOx_abs="140.645429" fuel_abs="116837.805677" electricity_abs="0"/>
    </tripinfo>
    <tripinfo id="f_1_2.5" depart="177.00" departLane="E2D2_0" departPos="5.10" departSpeed="0.00" departDelay="0.00" arrival="318.00" arrivalLane="C2B2_0" arrivalPos="492.80" arrivalSpeed="14.18" duration="141.00" routeLength="1495.00" waitingTime="4.00" waitingCount="2" stopTime="0.00" timeLoss="41.73" rerouteNo="0" devices="tripinfo_f_1_2.5 emissions_f_1_2.5" vType="DEFAULT_VEHTYPE" speedFactor="1.09" vaporized="">
        <emissions CO_abs="5979.520211" CO2_abs="389790.364768" HC_abs="35.901314" PMx_abs="6.291653" NOx_abs="153.846680" fuel_abs="124325.940721" electricity_abs="0"/>
    </tripinfo>
    <tripinfo id="f_1_3.6" depart="190.00" departLane="C0C1_0" departPos="5.10" departSpeed="0.00" departDelay="0.00" arrival="329.00" arrivalLane="C2C3_0" arrivalPos="492.80" arrivalSpeed="11.14" duration="139.00" routeLength="1495.00" waitingTime="1.00" waitingCount="1" stopTime="0.00" timeLoss="16.06" rerouteNo="0" devices="tripinfo_f_1_3.6 emissions_f_1_3.6" vType="DEFAULT_VEHTYPE" speedFactor="0.88" vaporized="">
        <emissions CO_abs="4034.042276" CO2_abs="323513.818673" HC_abs="25.621431" PMx_abs="4.379237" NOx_abs="122.331856" fuel_abs="103187.069777" electricity_abs="0"/>
    </tripinfo>
    <tripinfo id="f_1_2.6" depart="180.00" departLane="E2D2_0" departPos="5.10" departSpeed="0.00" departDelay="2.00" arrival="333.00" arrivalLane="C2B2_0" arrivalPos="492.80" arrivalSpeed="14.38" duration="153.00" routeLength="1495.00" waitingTime="16.00" waitingCount="3" stopTime="0.00" timeLoss="48.91" rerouteNo="0" devices="tripinfo_f_1_2.6 emissions_f_1_2.6" vType="DEFAULT_VEHTYPE" speedFactor="1.04" vaporized="">
        <emissions CO_abs="8286.363868" CO2_abs="433167.489395" HC_abs="47.167149" PMx_abs="7.160949" NOx_abs="171.321169" fuel_abs="138162.202476" electricity_abs="0"/>
    </tripinfo>
    <tripinfo id="f_1_2.7" depart="183.00" departLane="E2D2_0" departPos="5.10" departSpeed="0.00" departDelay="0.00" arrival="336.00" arrivalLane="C2B2_0" arrivalPos="492.80" arrivalSpeed="13.66" duration="153.00" routeLength="1495.00" waitingTime="15.00" waitingCount="2" stopTime="0.00" timeLoss="44.38" rerouteNo="0" devices="tripinfo_f_1_2.7 emissions_f_1_2.7" vType="DEFAULT_VEHTYPE" speedFactor="1.00" vaporized="">