<?xml version="1.0" encoding="UTF-8"?>

<!-- generated on 2024-08-22 13:37:06 by Eclipse SUMO sumo Version 1.17.0
<configuration xmlns:xsi="http://www.w3.org/2001/XMLSchema-instance" xsi:noNamespaceSchemaLocation="http://sumo.dlr.de/xsd/sumoConfiguration.xsd">

    <input>
        <net-file value="single_neat.net.xml"/>
        <route-files value="single_5.rou.xml"/>
    </input>

    <output>
        <tripinfo-output value="emissions_test\z14_data_VehicleNumberAndHaltingNumber_stepThreshold_4000_gen_80_5emissionssingle.xml"/>
    </output>

    <processing>
        <time-to-teleport value="-1"/>
    </processing>

    <report>
        <no-warnings value="true"/>
    </report>

    <emissions>
        <device.emissions.probability value="1.0"/>
    </emissions>

    <traci_server>
        <remote-port value="58245"/>
    </traci_server>

</configuration>
-->

<tripinfos xmlns:xsi="http://www.w3.org/2001/XMLSchema-instance" xsi:noNamespaceSchemaLocation="http://sumo.dlr.de/xsd/tripinfo_file.xsd">
    <tripinfo id="f_0_0.0" depart="2.00" departLane="A2B2_0" departPos="5.10" departSpeed="0.00" departDelay="0.00" arrival="122.00" arrivalLane="C2D2_0" arrivalPos="492.80" arrivalSpeed="14.56" duration="120.00" routeLength="1495.00" waitingTime="4.00" waitingCount="1" stopTime="0.00" timeLoss="17.52" rerouteNo="0" devices="tripinfo_f_0_0.0 emissions_f_0_0.0" vType="DEFAULT_VEHTYPE" speedFactor="1.06" vaporized="">
        <emissions CO_abs="3949.582248" CO2_abs="335899.828796" HC_abs="24.804210" PMx_abs="4.910817" NOx_abs="126.404779" fuel_abs="107137.133722" electricity_abs="0"/>
    </tripinfo>
    <tripinfo id="f_0_0.1" depart="5.00" departLane="A2B2_0" departPos="5.10" departSpeed="0.00" departDelay="0.00" arrival="129.00" arrivalLane="C2D2_0" arrivalPos="492.80" arrivalSpeed="12.77" duration="124.00" routeLength="1495.00" waitingTime="0.00" waitingCount="0" stopTime="0.00" timeLoss="9.08" rerouteNo="0" devices="tripinfo_f_0_0.1 emissions_f_0_0.1" vType="DEFAULT_VEHTYPE" speedFactor="0.94" vaporized="">
        <emissions CO_abs="2474.000594" CO2_abs="292056.446433" HC_abs="17.394097" PMx_abs="3.487104" NOx_abs="105.577598" fuel_abs="93153.391812" electricity_abs="0"/>
    </tripinfo>
    <tripinfo id="f_0_0.2" depart="10.00" departLane="A2B2_0" departPos="5.10" departSpeed="0.00" departDelay="0.00" arrival="131.00" arrivalLane="C2D2_0" arrivalPos="492.80" arrivalSpeed="13.39" duration="121.00" routeLength="1495.00" waitingTime="0.00" waitingCount="0" stopTime="0.00" timeLoss="13.92" rerouteNo="0" devices="tripinfo_f_0_0.2 emissions_f_0_0.2" vType="DEFAULT_VEHTYPE" speedFactor="1.01" vaporized="">
        <emissions CO_abs="3268.300687" CO2_abs="311642.562363" HC_abs="21.795322" PMx_abs="4.624574" NOx_abs="119.361671" fuel_abs="99399.824020" electricity_abs="0"/>
    </tripinfo>
    <tripinfo id="f_0_0.3" depart="16.00" departLane="A2B2_0" departPos="5.10" departSpeed="0.00" departDelay="0.00" arrival="133.00" arrivalLane="C2D2_0" arrivalPos="492.80" arrivalSpeed="14.67" duration="117.00" routeLength="1495.00" waitingTime="0.00" waitingCount="0" stopTime="0.00" timeLoss="16.67" rerouteNo="0" devices="tripinfo_f_0_0.3 emissions_f_0_0.3" vType="DEFAULT_VEHTYPE" speedFactor="1.08" vaporized="">
        <emissions CO_abs="3576.037225" CO2_abs="334496.128951" HC_abs="23.655843" PMx_abs="5.237275" NOx_abs="129.414248" fuel_abs="106688.809558" electricity_abs="0"/>
    </tripinfo>
    <tripinfo id="f_0_0.4" depart="20.00" departLane="A2B2_0" departPos="5.10" departSpeed="0.00" departDelay="0.00" arrival="151.00" arrivalLane="C2D2_0" arrivalPos="492.80" arrivalSpeed="13.35" duration="131.00" routeLength="1495.00" waitingTime="11.00" waitingCount="1" stopTime="0.00" timeLoss="25.68" rerouteNo="0" devices="tripinfo_f_0_0.4 emissions_f_0_0.4" vType="DEFAULT_VEHTYPE" speedFactor="1.03" vaporized="">
        <emissions CO_abs="5183.522406" CO2_abs="348539.732780" HC_abs="31.002586" PMx_abs="5.196626" NOx_abs="132.704033" fuel_abs="111169.287299" electricity_abs="0"/>
    </tripinfo>
    <tripinfo id="f_0_1.0" depart="40.00" departLane="C4C3_0" departPos="5.10" departSpeed="0.00" departDelay="0.00" arrival="180.00" arrivalLane="C2C1_0" arrivalPos="492.80" arrivalSpeed="10.63" duration="140.00" routeLength="1495.00" waitingTime="0.00" waitingCount="0" stopTime="0.00" timeLoss="10.14" rerouteNo="0" devices="tripinfo_f_0_1.0 emissions_f_0_1.0" vType="DEFAULT_VEHTYPE" speedFactor="0.83" vaporized="">
        <emissions CO_abs="3233.304106" CO2_abs="301121.501799" HC_abs="21.440883" PMx_abs="3.549276" NOx_abs="110.379972" fuel_abs="96045.165872" electricity_abs="0"/>
    </tripinfo>
    <tripinfo id="f_0_1.1" depart="43.00" departLane="C4C3_0" departPos="5.10" departSpeed="0.00" departDelay="0.00" arrival="182.00" arrivalLane="C2C1_0" arrivalPos="492.80" arrivalSpeed="13.37" duration="139.00" routeLength="1495.00" waitingTime="0.00" waitingCount="0" stopTime="0.00" timeLoss="35.41" rerouteNo="0" devices="tripinfo_f_0_1.1 emissions_f_0_1.1" vType="DEFAULT_VEHTYPE" speedFactor="1.05" vaporized="">
        <emissions CO_abs="4330.306561" CO2_abs="349536.340043" HC_abs="27.701699" PMx_abs="5.078585" NOx_abs="135.063466" fuel_abs="111486.677326" electricity_abs="0"/>
    </tripinfo>
    <tripinfo id="f_0_1.2" depart="46.00" departLane="C4C3_0" departPos="5.10" departSpeed="0.00" departDelay="1.00" arrival="184.00" arrivalLane="C2C1_0" arrivalPos="492.80" arrivalSpeed="11.25" duration="138.00" routeLength="1495.00" waitingTime="0.00" waitingCount="0" stopTime="0.00" timeLoss="15.86" rerouteNo="0" devices="tripinfo_f_0_1.2 emissions_f_0_1.2" vType="DEFAULT_VEHTYPE" speedFactor="0.89" vaporized="">
        <emissions CO_abs="4328.456317" CO2_abs="342405.482232" HC_abs="27.545908" PMx_abs="5.174680" NOx_abs="133.739064" fuel_abs="109212.061677" electricity_abs="0"/>
    </tripinfo>
    <tripinfo id="f_0_1.3" depart="49.00" departLane="C4C3_0" departPos="5.10" departSpeed="0.00" departDelay="1.00" arrival="186.00" arrivalLane="C2C1_0" arrivalPos="492.80" arrivalSpeed="11.84" duration="137.00" routeLength="1495.00" waitingTime="0.00" waitingCount="0" stopTime="0.00" timeLoss="21.45" rerouteNo="0" devices="tripinfo_f_0_1.3 emissions_f_0_1.3" vType="DEFAULT_VEHTYPE" speedFactor="0.94" vaporized="">
        <emissions CO_abs="5105.792428" CO2_abs="382788.512948" HC_abs="32.069707" PMx_abs="6.302902" NOx_abs="153.029939" fuel_abs="122092.015421" electricity_abs="0"/>
    </tripinfo>
    <tripinfo id="f_0_1.4" depart="52.00" departLane="C4C3_0" departPos="5.10" departSpeed="0.00" departDelay="3.00" arrival="188.00" arrivalLane="C2C1_0" arrivalPos="492.80" arrivalSpeed="11.61" duration="136.00" routeLength="1495.00" waitingTime="0.00" waitingCount="0" stopTime="0.00" timeLoss="9.79" rerouteNo="0" devices="tripinfo_f_0_1.4 emissions_f_0_1.4" vType="DEFAULT_VEHTYPE" speedFactor="0.86" vaporized="">
        <emissions CO_abs="3399.912056" CO2_abs="312283.859921" HC_abs="22.536772" PMx_abs="4.057721" NOx_abs="117.043591" fuel_abs="99605.065373" electricity_abs="0"/>
    </tripinfo>
    <tripinfo id="f_0_1.5" depart="55.00" departLane="C4C3_0" departPos="5.10" departSpeed="0.00" departDelay="1.00" arrival="190.00" arrivalLane="C2C1_0" arrivalPos="492.80" arrivalSpeed="14.54" duration="135.00" routeLength="1495.00" waitingTime="0.00" waitingCount="0" stopTime="0.00" timeLoss="35.44" rerouteNo="0" devices="tripinfo_f_0_1.5 emissions_f_0_1.5" vType="DEFAULT_VEHTYPE" speedFactor="1.09" vaporized="">
        <emissions CO_abs="4410.461134" CO2_abs="352234.520977" HC_abs="28.241102" PMx_abs="5.515456" NOx_abs="138.726612" fuel_abs="112346.856420" electricity_abs="0"/>
    </tripinfo>
    <tripinfo id="f_0_1.6" depart="58.00" departLane="C4C3_0" departPos="5.10" departSpeed="0.00" departDelay="0.00" arrival="191.00" arrivalLane="C2C1_0" arrivalPos="492.80" arrivalSpeed="13.10" duration="133.00" routeLength="1495.00" waitingTime="5.00" waitingCount="1" stopTime="0.00" timeLoss="27.96" rerouteNo="0" devices="tripinfo_f_0_1.6 emissions_f_0_1.6" vType="DEFAULT_VEHTYPE" speedFactor="1.03" vaporized="">
        <emissions CO_abs="5287.758758" CO2_abs="368963.218794" HC_abs="32.259699" PMx_abs="5.901021" NOx_abs="144.797129" fuel_abs="117682.866140" electricity_abs="0"/>
    </tripinfo>
    <tripinfo id="f_0_1.7" depart="68.00" departLane="C4C3_0" departPos="5.10" departSpeed="0.00" departDelay="0.00" arrival="193.00" arrivalLane="C2C1_0" arrivalPos="492.80" arrivalSpeed="13.68" duration="125.00" routeLength="1495.00" waitingTime="1.00" waitingCount="1" stopTime="0.00" timeLoss="21.85" rerouteNo="0" devices="tripinfo_f_0_1.7 emissions_f_0_1.7" vType="DEFAULT_VEHTYPE" speedFactor="1.05" vaporized="">
        <emissions CO_abs="4018.346478" CO2_abs="343640.125545" HC_abs="25.950999" PMx_abs="5.203620" NOx_abs="132.360513" fuel_abs="109605.727970" electricity_abs="0"/>
    </tripinfo>
    <tripinfo id="f_0_2.0" depart="80.00" departLane="E2D2_0" departPos="5.10" departSpeed="0.00" departDelay="0.00" arrival="194.00" arrivalLane="C2B2_0" arrivalPos="492.80" arrivalSpeed="14.35" duration="114.00" routeLength="1495.00" waitingTime="4.00" waitingCount="1" stopTime="0.00" timeLoss="17.38" rerouteNo="0" devices="tripinfo_f_0_2.0 emissions_f_0_2.0" vType="DEFAULT_VEHTYPE" speedFactor="1.12" vaporized="">
        <emissions CO_abs="3970.041999" CO2_abs="330165.965673" HC_abs="24.765130" PMx_abs="4.957162" NOx_abs="124.226020" fuel_abs="105308.194339" electricity_abs="0"/>
    </tripinfo>
    <tripinfo id="f_0_2.1" depart="83.00" departLane="E2D2_0" departPos="5.10" departSpeed="0.00" departDelay="1.00" arrival="227.00" arrivalLane="C2B2_0" arrivalPos="492.80" arrivalSpeed="13.53" duration="144.00" routeLength="1495.00" waitingTime="15.00" waitingCount="2" stopTime="0.00" timeLoss="34.44" rerouteNo="0" devices="tripinfo_f_0_2.1 emissions_f_0_2.1" vType="DEFAULT_VEHTYPE" speedFactor="0.99" vaporized="">
        <emissions CO_abs="6844.352206" CO2_abs="383009.076393" HC_abs="39.647032" PMx_abs="6.272684" NOx_abs="151.474150" fuel_abs="122163.552771" electricity_abs="0"/>
    </tripinfo>
    <tripinfo id="f_0_2.2" depart="86.00" departLane="E2D2_0" departPos="5.10" departSpeed="0.00" departDelay="3.00" arrival="231.00" arrivalLane="C2B2_0" arrivalPos="492.80" arrivalSpeed="11.84" duration="145.00" routeLength="1495.00" waitingTime="8.00" waitingCount="1" stopTime="0.00" timeLoss="28.17" rerouteNo="0" devices="tripinfo_f_0_2.2 emissions_f_0_2.2" vType="DEFAULT_VEHTYPE" speedFactor="0.93" vaporized="">
        <emissions CO_abs="5864.060146" CO2_abs="374943.920463" HC_abs="35.009938" PMx_abs="5.624443" NOx_abs="144.918782" fuel_abs="119591.199785" electricity_abs="0"/>
    </tripinfo>
    <tripinfo id="f_0_2.3" depart="89.00" departLane="E2D2_0" departPos="5.10" departSpeed="0.00" departDelay="2.00" arrival="235.00" arrivalLane="C2B2_0" arrivalPos="492.80" arrivalSpeed="11.24" duration="146.00" routeLength="1495.00" waitingTime="7.00" waitingCount="1" stopTime="0.00" timeLoss="22.90" rerouteNo="0" devices="tripinfo_f_0_2.3 emissions_f_0_2.3" vType="DEFAULT_VEHTYPE" speedFactor="0.88" vaporized="">
        <emissions CO_abs="4727.086735" CO2_abs="345373.010048" HC_abs="29.050856" PMx_abs="4.439705" NOx_abs="128.611448" fuel_abs="110159.777477" electricity_abs="0"/>
    </tripinfo>
    <tripinfo id="f_0_2.4" depart="92.00" departLane="E2D2_0" departPos="5.10" departSpeed="0.00" departDelay="4.00" arrival="237.00" arrivalLane="C2B2_0" arrivalPos="492.80" arrivalSpeed="11.91" duration="145.00" routeLength="1495.00" waitingTime="5.00" waitingCount="1" stopTime="0.00" timeLoss="29.79" rerouteNo="0" devices="tripinfo_f_0_2.4 emissions_f_0_2.4" vType="DEFAULT_VEHTYPE" speedFactor="0.94" vaporized="">
        <emissions CO_abs="5693.950898" CO2_abs="369711.894591" HC_abs="34.359298" PMx_abs="5.791992" NOx_abs="145.465335" fuel_abs="117922.024124" electricity_abs="0"/>
    </tripinfo>
    <tripinfo id="f_0_2.5" depart="95.00" departLane="E2D2_0" departPos="5.10" departSpeed="0.00" departDelay="3.00" arrival="238.00" arrivalLane="C2B2_0" arrivalPos="492.80" arrivalSpeed="12.20" duration="143.00" routeLength="1495.00" waitingTime="4.00" waitingCount="1" stopTime="0.00" timeLoss="28.00" rerouteNo="0" devices="tripinfo_f_0_2.5 emissions_f_0_2.5" vType="DEFAULT_VEHTYPE" speedFactor="0.94" vaporized="">
        <emissions CO_abs="5597.711806" CO2_abs="370890.507517" HC_abs="33.857501" PMx_abs="5.654828" NOx_abs="144.592325" fuel_abs="118298.070360" electricity_abs="0"/>
    </tripinfo>
    <tripinfo id="f_0_2.6" depart="98.00" departLane="E2D2_0" departPos="5.10" departSpeed="0.00" departDelay="4.00" arrival="249.00" arrivalLane="C2B2_0" arrivalPos="492.80" arrivalSpeed="15.00" duration="151.00" routeLength="1495.00" waitingTime="17.00" waitingCount="2" stopTime="0.00" timeLoss="57.95" rerouteNo="0" devices="tripinfo_f_0_2.6 emissions_f_0_2.6" vType="DEFAULT_VEHTYPE" speedFactor="1.16" vaporized="">
        <emissions CO_abs="8568.715157" CO2_abs="435712.490332" HC_abs="48.770253" PMx_abs="7.524001" NOx_abs="175.008502" fuel_abs="138973.723782" electricity_abs="0"/>
    </tripinfo>
    <tripinfo id="f_0_3.0" depart="122.00" departLane="C0C1_0" departPos="5.10" departSpeed="0.00" departDelay="0.00" arrival="252.00" arrivalLane="C2C3_0" arrivalPos="492.80" arrivalSpeed="11.56" duration="130.00" routeLength="1495.00" waitingTime="0.00" waitingCount="0" stopTime="0.00" timeLoss="8.60" rerouteNo="0" devices="tripinfo_f_0_3.0 emissions_f_0_3.0" vType="DEFAULT_VEHTYPE" speedFactor="0.89" vaporized="">
        <emissions CO_abs="2774.616634" CO2_abs="291118.769407" HC_abs="18.899579" PMx_abs="3.560866" NOx_abs="106.638268" fuel_abs="92854.373595" electricity_abs="0"/>
    </tripinfo>
    <tripinfo id="f_0_2.7" depart="101.00" departLane="E2D2_0" departPos="5.10" departSpeed="0.00" departDelay="6.00" arrival="255.00" arrivalLane="C2B2_0" arrivalPos="492.80" arrivalSpeed="13.98" duration="154.00" routeLength="1495.00" waitingTime="16.00" waitingCount="2" stopTime="0.00" timeLoss="47.56" rerouteNo="0" devices="tripinfo_f_0_2.7 emissions_f_0_2.7" vType="DEFAULT_VEHTYPE" speedFactor="1.02" vaporized="">
        <emissions CO_abs="8327.817887" CO2_abs="429568.624218" HC_abs="47.363800" PMx_abs="7.325729" NOx_abs="172.041399" fuel_abs="137014.089714" electricity_abs="0"/>
    </tripinfo>
    <tripinfo id="f_0_2.8" depart="104.00" departLane="E2D2_0" departPos="5.10" departSpeed="0.00" departDelay="8.00" arrival="257.00" arrivalLane="C2B2_0" arrivalPos="492.80" arrivalSpeed="13.93" duration="153.00" routeLength="1495.00" waitingTime="15.00" waitingCount="2" stopTime="0.00" timeLoss="45.78" rerouteNo="0" devices="tripinfo_f_0_2.8 emissions_f_0_2.8" vType="DEFAULT_VEHTYPE" speedFactor="1.01" vaporized="">
        <emissions CO_abs="8072.004364" CO2_abs="434446.483025" HC_abs="46.304877" PMx_abs="7.187141" NOx_abs="172.201416" fuel_abs="138569.983914" electricity_abs="0"/>
    </tripinfo>
    <tripinfo id="f_0_2.9" depart="107.00" departLane="E2D2_0" departPos="5.10" departSpeed="0.00" departDelay="10.00" arrival="260.00" arrivalLane="C2B2_0" arrivalPos="492.80" arrivalSpeed="13.22" duration="153.00" routeLength="1495.00" waitingTime="14.00" waitingCount="2" stopTime="0.00" timeLoss="42.13" rerouteNo="0" devices="tripinfo_f_0_2.9 emissions_f_0_2.9" vType="DEFAULT_VEHTYPE" speedFactor="0.97" vaporized="">
        <emissions CO_abs="7484.439451" CO2_abs="401318.908767" HC_abs="42.938872" PMx_abs="6.438206" NOx_abs="157.895185" fuel_abs="128003.953095" electricity_abs="0"/>
    </tripinfo>
    <tripinfo id="f_0_3.1" depart="125.00" departLane="C0C1_0" departPos="5.10" departSpeed="0.00" departDelay="1.00" arrival="275.00" arrivalLane="C2C3_0" arrivalPos="492.80" arrivalSpeed="10.74" duration="150.00" routeLength="1495.00" waitingTime="4.00" waitingCount="1" stopTime="0.00" timeLoss="19.32" rerouteNo="0" devices="tripinfo_f_0_3.1 emissions_f_0_3.1" vType="DEFAULT_VEHTYPE" speedFactor="0.83" vaporized="">
        <emissions CO_abs="4886.556760" CO2_abs="347692.726485" HC_abs="30.066925" PMx_abs="4.536636" NOx_abs="130.784502" fuel_abs="110899.629844" electricity_abs="0"/>
    </tripinfo>
    <tripinfo id="f_0_3.2" depart="139.00" departLane="C0C1_0" departPos="5.10" departSpeed="0.00" departDelay="0.00" arrival="277.00" arrivalLane="C2C3_0" arrivalPos="492.80" arrivalSpeed="11.38" duration="138.00" routeLength="1495.00" waitingTime="0.00" waitingCount="0" stopTime="0.00" timeLoss="14.04" rerouteNo="0" devices="tripinfo_f_0_3.2 emissions_f_0_3.2" vType="DEFAULT_VEHTYPE" speedFactor="0.87" vaporized="">
        <emissions CO_abs="3817.378386" CO2_abs="318324.091883" HC_abs="24.567057" PMx_abs="4.436958" NOx_abs="121.560061" fuel_abs="101531.490959" electricity_abs="0"/>
    </tripinfo>
    <tripinfo id="f_0_3.3" depart="145.00" departLane="C0C1_0" departPos="5.10" departSpeed="0.00" departDelay="0.00" arrival="279.00" arrivalLane="C2C3_0" arrivalPos="492.80" arrivalSpeed="11.80" duration="134.00" routeLength="1495.00" waitingTime="0.00" waitingCount="0" stopTime="0.00" timeLoss="15.82" rerouteNo="0" devices="tripinfo_f_0_3.3 emissions_f_0_3.3" vType="DEFAULT_VEHTYPE" speedFactor="0.92" vaporized="">
        <emissions CO_abs="3882.291442" CO2_abs="331886.529471" HC_abs="24.983061" PMx_abs="4.796353" NOx_abs="127.276149" fuel_abs="105857.080245" electricity_abs="0"/>
    </tripinfo>
    <tripinfo id="f_0_3.4" depart="148.00" departLane="C0C1_0" departPos="5.10" departSpeed="0.00" departDelay="1.00" arrival="280.00" arrivalLane="C2C3_0" arrivalPos="492.80" arrivalSpeed="12.03" duration="132.00" routeLength="1495.00" waitingTime="0.00" waitingCount="0" stopTime="0.00" timeLoss="18.48" rerouteNo="0" devices="tripinfo_f_0_3.4 emissions_f_0_3.4" vType="DEFAULT_VEHTYPE" speedFactor="0.95" vaporized="">
        <emissions CO_abs="4267.704365" CO2_abs="356567.700318" HC_abs="27.282864" PMx_abs="5.314232" NOx_abs="137.757708" fuel_abs="113729.155679" electricity_abs="0"/>
    </tripinfo>
    <tripinfo id="f_1_1.0" depart="200.00" departLane="C4C3_0" departPos="5.10" departSpeed="0.00" departDelay="0.00" arrival="304.00" arrivalLane="C2C1_0" arrivalPos="492.80" arrivalSpeed="14.64" duration="104.00" routeLength="1495.00" waitingTime="0.00" waitingCount="0" stopTime="0.00" timeLoss="8.51" rerouteNo="0" devices="tripinfo_f_1_1.0 emissions_f_1_1.0" vType="DEFAULT_VEHTYPE" speedFactor="1.13" vaporized="">
        <emissions CO_abs="2471.478060" CO2_abs="292376.168474" HC_abs="17.028989" PMx_abs="4.051249" NOx_abs="107.219736" fuel_abs="93254.688679" electricity_abs="0"/>
    </tripinfo>
    <tripinfo id="f_1_3.0" depart="205.00" departLane="C0C1_0" departPos="5.10" departSpeed="0.00" departDelay="0.00" arrival="304.00" arrivalLane="C2C3_0" arrivalPos="492.80" arrivalSpeed="15.11" duration="99.00" routeLength="1495.00" waitingTime="0.00" waitingCount="0" stopTime="0.00" timeLoss="7.50" rerouteNo="0" devices="tripinfo_f_1_3.0 emissions_f_1_3.0" vType="DEFAULT_VEHTYPE" speedFactor="1.18" vaporized="">
        <emissions CO_abs="2260.307020" CO2_abs="284803.529516" HC_abs="15.935621" PMx_abs="3.982609" NOx_abs="103.607244" fuel_abs="90839.284885" electricity_abs="0"/>
    </tripinfo>
    <tripinfo id="f_1_1.1" depart="208.00" departLane="C4C3_0" departPos="5.10" departSpeed="0.00" departDelay="0.00" arrival="309.00" arrivalLane="C2C1_0" arrivalPos="492.80" arrivalSpeed="15.27" duration="101.00" routeLength="1495.00" waitingTime="0.00" waitingCount="0" stopTime="0.00" timeLoss="7.76" rerouteNo="0" devices="tripinfo_f_1_1.1 emissions_f_1_1.1" vType="DEFAULT_VEHTYPE" speedFactor="1.15" vaporized="">
        <emissions CO_abs="2329.718186" CO2_abs="295659.447024" HC_abs="16.469358" PMx_abs="4.076754" NOx_abs="108.010780" fuel_abs="94301.834139" electricity_abs="0"/>
    </tripinfo>
    <tripinfo id="f_1_3.1" depart="214.00" departLane="C0C1_0" departPos="5.10" departSpeed="0.00" departDelay="0.00" arrival="313.00" arrivalLane="C2C3_0" arrivalPos="492.80" arrivalSpeed="15.43" duration="99.00" routeLength="1495.00" waitingTime="0.00" waitingCount="0" stopTime="0.00" timeLoss="6.57" rerouteNo="0" devices="tripinfo_f_1_3.1 emissions_f_1_3.1" vType="DEFAULT_VEHTYPE" speedFactor="1.17" vaporized="">
        <emissions CO_abs="1990.347689" CO2_abs="281212.676710" HC_abs="14.369771" PMx_abs="3.735241" NOx_abs="100.440812" fuel_abs="89694.037826" electricity_abs="0"/>
    </tripinfo>
    <tripinfo id="f_1_1.2" depart="222.00" departLane="C4C3_0" departPos="5.10" departSpeed="0.00" departDelay="0.00" arrival="321.00" arrivalLane="C2C1_0" arrivalPos="492.80" arrivalSpeed="15.94" duration="99.00" routeLength="1495.00" waitingTime="0.00" waitingCount="0" stopTime="0.00" timeLoss="7.48" rerouteNo="0" devices="tripinfo_f_1_1.2 emissions_f_1_1.2" vType="DEFAULT_VEHTYPE" speedFactor="1.18" vaporized="">
        <emissions CO_abs="2295.149275" CO2_abs="285456.723929" HC_abs="16.056987" PMx_abs="4.003100" NOx_abs="104.361897" fuel_abs="91047.594340" electricity_abs="0"/>
    </tripinfo>
    <tripinfo id="f_1_3.2" depart="217.00" departLane="C0C1_0" departPos="5.10" departSpeed="0.00" departDelay="2.00" arrival="334.00" arrivalLane="C2C3_0" arrivalPos="492.80" arrivalSpeed="13.15" duration="117.00" routeLength="1495.00" waitingTime="0.00" waitingCount="0" stopTime="0.00" timeLoss="8.41" rerouteNo="0" devices="tripinfo_f_1_3.2 emissions_f_1_3.2" vType="DEFAULT_VEHTYPE" speedFactor="0.99" vaporized="">
        <emissions CO_abs="2318.782917" CO2_abs="287505.961965" HC_abs="16.538263" PMx_abs="3.605563" NOx_abs="104.397925" fuel_abs="91701.716118" electricity_abs="0"/>
    </tripinfo>
    <tripinfo id="f_1_3.3" depart="220.00" departLane="C0C1_0" departPos="5.10" departSpeed="0.00" departDelay="0.00" arrival="336.00" arrivalLane="C2C3_0" arrivalPos="492.80" arrivalSpeed="14.04" duration="116.00" routeLength="1495.00" waitingTime="0.00" waitingCount="0" stopTime="0.00" timeLoss="9.76" rerouteNo="0" devices="tripinfo_f_1_3.3 emissions_f_1_3.3" vType="DEFAULT_VEHTYPE" speedFactor="1.02" vaporized="">
        <emissions CO_abs="2464.455785" CO2_abs="297854.826368" HC_abs="17.171997" PMx_abs="3.792297" NOx_abs="108.594257" fuel_abs="95002.469355" electricity_abs="0"/>
    </tripinfo>
    <tripinfo id="f_1_1.3" depart="225.00" departLane="C4C3_0" departPos="5.10" departSpeed="0.00" departDelay="0.00" arrival="339.00" arrivalLane="C2C1_0" arrivalPos="492.80" arrivalSpeed="13.29" duration="114.00" routeLength="1495.00" waitingTime="0.00" waitingCount="0" stopTime="0.00" timeLoss="8.63" rerouteNo="0" devices="tripinfo_f_1_1.3 emissions_f_1_1.3" vType="DEFAULT_VEHTYPE" speedFactor="1.03" vaporized="">
        <emissions CO_abs="2350.595428" CO2_abs="290904.734974" HC_abs="16.395150" PMx_abs="3.644673" NOx_abs="104.815747" fuel_abs="92785.749938" electricity_abs="0"/>
    </tripinfo>
    <tripinfo id="f_1_3.4" depart="223.00" departLane="C0C1_0" departPos="5.10" departSpeed="0.00" departDelay="2.00" arrival="342.00" arrivalLane="C2C3_0" arrivalPos="492.80" arrivalSpeed="13.41" duration="119.00" routeLength="1495.00" waitingTime="0.00" waitingCount="0" stopTime="0.00" timeLoss="8.34" rerouteNo="0" devices="tripinfo_f_1_3.4 emissions_f_1_3.4" vType="DEFAULT_VEHTYPE" speedFactor="0.97" vaporized="">
        <emissions CO_abs="2354.017846" CO2_abs="288462.987828" HC_abs="16.639399" PMx_abs="3.529753" NOx_abs="104.590216" fuel_abs="92007.046294" electricity_abs="0"/>
    </tripinfo>
    <tripinfo id="f_1_1.4" depart="231.00" departLane="C4C3_0" departPos="5.10" departSpeed="0.00" departDelay="0.00" arrival="343.00" arrivalLane="C2C1_0" arrivalPos="492.80" arrivalSpeed="13.20" duration="112.00" routeLength="1495.00" waitingTime="0.00" waitingCount="0" stopTime="0.00" timeLoss="8.11" rerouteNo="0" devices="tripinfo_f_1_1.4 emissions_f_1_1.4" vType="DEFAULT_VEHTYPE" speedFactor="1.04" vaporized="">
        <emissions CO_abs="2468.937359" CO2_abs="294600.182172" HC_abs="17.192519" PMx_abs="3.928789" NOx_abs="108.430836" fuel_abs="93964.202001" electricity_abs="0"/>
    </tripinfo>
    <tripinfo id="f_1_3.5" depart="226.00" departLane="C0C1_0" departPos="5.10" departSpeed="0.00" departDelay="4.00" arrival="344.00" arrivalLane="C2C3_0" arrivalPos="492.80" arrivalSpeed="14.65" duration="118.00" routeLength="1495.00" waitingTime="0.00" waitingCount="0" stopTime="0.00" timeLoss="19.93" rerouteNo="0" devices="tripinfo_f_1_3.5 emissions_f_1_3.5" vType="DEFAULT_VEHTYPE" speedFactor="1.10" vaporized="">
        <emissions CO_abs="3114.771520" CO2_abs="304705.726384" HC_abs="21.086815" PMx_abs="4.596797" NOx_abs="117.354624" fuel_abs="97187.153456" electricity_abs="0"/>
    </tripinfo>
    <tripinfo id="f_1_3.6" depart="229.00" departLane="C0C1_0" departPos="5.10" departSpeed="0.00" departDelay="5.00" arrival="358.00" arrivalLane="C2C3_0" arrivalPos="492.80" arrivalSpeed="12.01" duration="129.00" routeLength="1495.00" waitingTime="0.00" waitingCount="0" stopTime="0.00" timeLoss="9.17" rerouteNo="0" devices="tripinfo_f_1_3.6 emissions_f_1_3.6" vType="DEFAULT_VEHTYPE" speedFactor="0.90" vaporized="">
        <emissions CO_abs="2802.767218" CO2_abs="296967.528872" HC_abs="19.252198" PMx_abs="3.672037" NOx_abs="109.199361" fuel_abs="94719.800876" electricity_abs="0"/>
    </tripinfo>
    <tripinfo id="f_1_0.0" depart="209.00" departLane="A2B2_0" departPos="5.10" departSpeed="0.00" departDelay="0.00" arrival="360.00" arrivalLane="C2D2_0" arrivalPos="492.80" arrivalSpeed="13.91" duration="151.00" routeLength="1495.00" waitingTime="30.00" waitingCount="1" stopTime="0.00" timeLoss="43.84" rerouteNo="0" devices="tripinfo_f_1_0.0 emissions_f_1_0.0" vType="DEFAULT_VEHTYPE" speedFactor="1.01" vaporized="">
        <emissions CO_abs="8279.767035" CO2_abs="408348.650050" HC_abs="46.436115" PMx_abs="6.444766" NOx_abs="158.465967" fuel_abs="130246.753484" electricity_abs="0"/>
    </tripinfo>
    <tripinfo id="f_1_3.7" depart="232.00" departLane="C0C1_0" departPos="5.10" departSpeed="0.00" departDelay="2.00" arrival="360.00" arrivalLane="C2C3_0" arrivalPos="492.80" arrivalSpeed="14.57" duration="128.00" routeLength="1495.00" waitingTime="0.00" waitingCount="0" stopTime="0.00" timeLoss="28.71" rerouteNo="0" devices="tripinfo_f_1_3.7 emissions_f_1_3.7" vType="DEFAULT_VEHTYPE" speedFactor="1.09" vaporized="">
        <emissions CO_abs="3800.254095" CO2_abs="343036.559169" HC_abs="24.994931" PMx_abs="5.032435" NOx_abs="131.974482" fuel_abs="109413.241649" electricity_abs="0"/>
    </tripinfo>
    <tripinfo id="f_1_2.0" depart="201.00" departLane="E2D2_0" departPos="5.10" departSpeed="0.00" departDelay="0.00" arrival="363.00" arrivalLane="C2B2_0" arrivalPos="492.80" arrivalSpeed="12.47" duration="162.00" routeLength="1495.00" waitingTime="34.00" waitingCount="1" stopTime="0.00" timeLoss="46.27" rerouteNo="0" devices="tripinfo_f_1_2.0 emissions_f_1_2.0" vType="DEFAULT_VEHTYPE" speedFactor="0.93" vaporized="">
        <emissions CO_abs="8752.729791" CO2_abs="401981.640393" HC_abs="48.492223" PMx_abs="6.260612" NOx_abs="156.575851" fuel_abs="128216.366403" electricity_abs="0"/>
    </tripinfo>
    <tripinfo id="f_1_0.1" depart="230.00" departLane="A2B2_0" departPos="5.10" departSpeed="0.00" departDelay="0.00" arrival="364.00" arrivalLane="C2D2_0" arrivalPos="492.80" arrivalSpeed="12.58" duration="134.00" routeLength="1495.00" waitingTime="9.00" waitingCount="1" stopTime="0.00" timeLoss="21.48" rerouteNo="0" devices="tripinfo_f_1_0.1 emissions_f_1_0.1" vType="DEFAULT_VEHTYPE" speedFactor="0.96" vaporized="">
        <emissions CO_abs="4529.908091" CO2_abs="334762.498016" HC_abs="27.659487" PMx_abs="4.546815" NOx_abs="125.100205" fuel_abs="106775.165718" electricity_abs="0"/>
    </tripinfo>
    <tripinfo id="f_1_2.1" depart="232.00" departLane="E2D2_0" departPos="5.10" departSpeed="0.00" departDelay="0.00" arrival="365.00" arrivalLane="C2B2_0" arrivalPos="492.80" arrivalSpeed="14.84" duration="133.00" routeLength="1495.00" waitingTime="14.00" waitingCount="1" stopTime="0.00" timeLoss="33.49" rerouteNo="0" devices="tripinfo_f_1_2.1 emissions_f_1_2.1" vType="DEFAULT_VEHTYPE" speedFactor="1.09" vaporized="">
        <emissions CO_abs="6329.040377" CO2_abs="373709.204363" HC_abs="36.950297" PMx_abs="6.168583" NOx_abs="147.045251" fuel_abs="119197.030934" electricity_abs="0"/>
    </tripinfo>
    <tripinfo id="f_1_0.2" depart="233.00" departLane="A2B2_0" departPos="5.10" departSpeed="0.00" departDelay="2.00" arrival="366.00" arrivalLane="C2D2_0" arrivalPos="492.80" arrivalSpeed="13.31" duration="133.00" routeLength="1495.00" waitingTime="6.00" waitingCount="1" stopTime="0.00" timeLoss="28.88" rerouteNo="0" devices="tripinfo_f_1_0.2 emissions_f_1_0.2" vType="DEFAULT_VEHTYPE" speedFactor="1.04" vaporized="">
        <emissions CO_abs="5092.656233" CO2_abs="348975.289719" HC_abs="30.810355" PMx_abs="5.446409" NOx_abs="135.596857" fuel_abs="111307.830095" electricity_abs="0"/>
    </tripinfo>
    <tripinfo id="f_1_2.2" depart="238.00" departLane="E2D2_0" departPos="5.10" departSpeed="0.00" departDelay="0.00" arrival="370.00" arrivalLane="C2B2_0" arrivalPos="492.80" arrivalSpeed="10.95" duration="132.00" routeLength="1495.00" waitingTime="0.00" waitingCount="0" stopTime="0.00" timeLoss="8.99" rerouteNo="0" devices="tripinfo_f_1_2.2 emissions_f_1_2.2" vType="DEFAULT_VEHTYPE" speedFactor="0.88" vaporized="">
        <emissions CO_abs="3030.051805" CO2_abs="292530.938722" HC_abs="20.373115" PMx_abs="3.808010" NOx_abs="109.380496" fuel_abs="93304.648541" electricity_abs="0"/>
    </tripinfo>
    <tripinfo id="f_2_2.0" depart="251.00" departLane="E2D2_0" departPos="5.10" departSpeed="0.00" departDelay="0.00" arrival="372.00" arrivalLane="C2B2_0" arrivalPos="492.80" arrivalSpeed="14.24" duration="121.00" routeLength="1495.00" waitingTime="0.00" waitingCount="0" stopTime="0.00" timeLoss="22.01" rerouteNo="0" devices="tripinfo_f_2_2.0 emissions_f_2_2.0" vType="DEFAULT_VEHTYPE" speedFactor="1.10" vaporized="">