<?xml version="1.0" encoding="UTF-8"?>

<!-- generated on 2024-08-22 13:36:54 by Eclipse SUMO sumo Version 1.17.0
<configuration xmlns:xsi="http://www.w3.org/2001/XMLSchema-instance" xsi:noNamespaceSchemaLocation="http://sumo.dlr.de/xsd/sumoConfiguration.xsd">

    <input>
        <net-file value="single_neat.net.xml"/>
        <route-files value="single_1.rou.xml"/>
    </input>

    <output>
        <tripinfo-output value="emissions_test\z14_data_VehicleNumberAndHaltingNumber_stepThreshold_4000_gen_80_1emissionssingle.xml"/>
    </output>

    <processing>
        <time-to-teleport value="-1"/>
    </processing>

    <report>
        <no-warnings value="true"/>
    </report>

    <emissions>
        <device.emissions.probability value="1.0"/>
    </emissions>

    <traci_server>
        <remote-port value="58231"/>
    </traci_server>

</configuration>
-->

<tripinfos xmlns:xsi="http://www.w3.org/2001/XMLSchema-instance" xsi:noNamespaceSchemaLocation="http://sumo.dlr.de/xsd/tripinfo_file.xsd">
    <tripinfo id="f_0_0.0" depart="2.00" departLane="A2B2_0" departPos="5.10" departSpeed="0.00" departDelay="0.00" arrival="121.00" arrivalLane="C2D2_0" arrivalPos="492.80" arrivalSpeed="14.44" duration="119.00" routeLength="1495.00" waitingTime="4.00" waitingCount="1" stopTime="0.00" timeLoss="16.54" rerouteNo="0" devices="tripinfo_f_0_0.0 emissions_f_0_0.0" vType="DEFAULT_VEHTYPE" speedFactor="1.06" vaporized="">
        <emissions CO_abs="4091.920843" CO2_abs="339370.485884" HC_abs="25.715881" PMx_abs="5.122076" NOx_abs="129.248943" fuel_abs="108244.003758" electricity_abs="0"/>
    </tripinfo>
    <tripinfo id="f_0_0.1" depart="5.00" departLane="A2B2_0" departPos="5.10" departSpeed="0.00" departDelay="0.00" arrival="129.00" arrivalLane="C2D2_0" arrivalPos="492.80" arrivalSpeed="11.85" duration="124.00" routeLength="1495.00" waitingTime="0.00" waitingCount="0" stopTime="0.00" timeLoss="8.53" rerouteNo="0" devices="tripinfo_f_0_0.1 emissions_f_0_0.1" vType="DEFAULT_VEHTYPE" speedFactor="0.94" vaporized="">
        <emissions CO_abs="2591.215614" CO2_abs="291478.649772" HC_abs="17.718577" PMx_abs="3.601862" NOx_abs="106.178135" fuel_abs="92969.000694" electricity_abs="0"/>
    </tripinfo>
    <tripinfo id="f_0_0.2" depart="10.00" departLane="A2B2_0" departPos="5.10" departSpeed="0.00" departDelay="0.00" arrival="130.00" arrivalLane="C2D2_0" arrivalPos="492.80" arrivalSpeed="13.20" duration="120.00" routeLength="1495.00" waitingTime="0.00" waitingCount="0" stopTime="0.00" timeLoss="13.40" rerouteNo="0" devices="tripinfo_f_0_0.2 emissions_f_0_0.2" vType="DEFAULT_VEHTYPE" speedFactor="1.01" vaporized="">
        <emissions CO_abs="3121.321428" CO2_abs="325253.643681" HC_abs="21.183660" PMx_abs="4.500865" NOx_abs="122.080795" fuel_abs="103741.335723" electricity_abs="0"/>
    </tripinfo>
    <tripinfo id="f_0_0.3" depart="16.00" departLane="A2B2_0" departPos="5.10" departSpeed="0.00" departDelay="0.00" arrival="132.00" arrivalLane="C2D2_0" arrivalPos="492.80" arrivalSpeed="14.04" duration="116.00" routeLength="1495.00" waitingTime="0.00" waitingCount="0" stopTime="0.00" timeLoss="16.14" rerouteNo="0" devices="tripinfo_f_0_0.3 emissions_f_0_0.3" vType="DEFAULT_VEHTYPE" speedFactor="1.08" vaporized="">
        <emissions CO_abs="3545.941420" CO2_abs="335819.819702" HC_abs="23.491381" PMx_abs="5.221432" NOx_abs="129.927866" fuel_abs="107110.990622" electricity_abs="0"/>
    </tripinfo>
    <tripinfo id="f_0_1.0" depart="27.00" departLane="C4C3_0" departPos="5.10" departSpeed="0.00" departDelay="0.00" arrival="139.00" arrivalLane="C2C1_0" arrivalPos="492.80" arrivalSpeed="13.93" duration="112.00" routeLength="1495.00" waitingTime="0.00" waitingCount="0" stopTime="0.00" timeLoss="8.14" rerouteNo="0" devices="tripinfo_f_0_1.0 emissions_f_0_1.0" vType="DEFAULT_VEHTYPE" speedFactor="1.05" vaporized="">
        <emissions CO_abs="2398.571534" CO2_abs="288882.752935" HC_abs="16.823872" PMx_abs="3.825354" NOx_abs="105.655955" fuel_abs="92140.638501" electricity_abs="0"/>
    </tripinfo>
    <tripinfo id="f_0_0.4" depart="20.00" departLane="A2B2_0" departPos="5.10" departSpeed="0.00" departDelay="0.00" arrival="149.00" arrivalLane="C2D2_0" arrivalPos="492.80" arrivalSpeed="14.09" duration="129.00" routeLength="1495.00" waitingTime="10.00" waitingCount="1" stopTime="0.00" timeLoss="24.17" rerouteNo="0" devices="tripinfo_f_0_0.4 emissions_f_0_0.4" vType="DEFAULT_VEHTYPE" speedFactor="1.03" vaporized="">
        <emissions CO_abs="4754.348256" CO2_abs="342413.944530" HC_abs="28.670003" PMx_abs="4.925347" NOx_abs="129.129011" fuel_abs="109215.384263" electricity_abs="0"/>
    </tripinfo>
    <tripinfo id="f_0_2.0" depart="45.00" departLane="E2D2_0" departPos="5.10" departSpeed="0.00" departDelay="0.00" arrival="156.00" arrivalLane="C2B2_0" arrivalPos="492.80" arrivalSpeed="14.15" duration="111.00" routeLength="1495.00" waitingTime="0.00" waitingCount="0" stopTime="0.00" timeLoss="7.34" rerouteNo="0" devices="tripinfo_f_0_2.0 emissions_f_0_2.0" vType="DEFAULT_VEHTYPE" speedFactor="1.05" vaporized="">
        <emissions CO_abs="2250.333526" CO2_abs="294512.824557" HC_abs="16.045282" PMx_abs="3.746354" NOx_abs="106.459815" fuel_abs="93936.424293" electricity_abs="0"/>
    </tripinfo>
    <tripinfo id="f_0_2.1" depart="50.00" departLane="E2D2_0" departPos="5.10" departSpeed="0.00" departDelay="0.00" arrival="157.00" arrivalLane="C2B2_0" arrivalPos="492.80" arrivalSpeed="15.58" duration="107.00" routeLength="1495.00" waitingTime="0.00" waitingCount="0" stopTime="0.00" timeLoss="10.86" rerouteNo="0" devices="tripinfo_f_0_2.1 emissions_f_0_2.1" vType="DEFAULT_VEHTYPE" speedFactor="1.12" vaporized="">
        <emissions CO_abs="2633.455802" CO2_abs="303902.083423" HC_abs="17.977064" PMx_abs="4.220945" NOx_abs="112.067359" fuel_abs="96930.948829" electricity_abs="0"/>
    </tripinfo>
    <tripinfo id="f_0_0.5" depart="25.00" departLane="A2B2_0" departPos="5.10" departSpeed="0.00" departDelay="0.00" arrival="166.00" arrivalLane="C2D2_0" arrivalPos="492.80" arrivalSpeed="10.57" duration="141.00" routeLength="1495.00" waitingTime="0.00" waitingCount="0" stopTime="0.00" timeLoss="10.64" rerouteNo="0" devices="tripinfo_f_0_0.5 emissions_f_0_0.5" vType="DEFAULT_VEHTYPE" speedFactor="0.83" vaporized="">
        <emissions CO_abs="3400.148742" CO2_abs="301964.492921" HC_abs="22.262281" PMx_abs="3.738991" NOx_abs="112.134734" fuel_abs="96313.909956" electricity_abs="0"/>
    </tripinfo>
    <tripinfo id="f_0_0.6" depart="34.00" departLane="A2B2_0" departPos="5.10" departSpeed="0.00" departDelay="0.00" arrival="167.00" arrivalLane="C2D2_0" arrivalPos="492.80" arrivalSpeed="11.50" duration="133.00" routeLength="1495.00" waitingTime="0.00" waitingCount="0" stopTime="0.00" timeLoss="11.41" rerouteNo="0" devices="tripinfo_f_0_0.6 emissions_f_0_0.6" vType="DEFAULT_VEHTYPE" speedFactor="0.89" vaporized="">
        <emissions CO_abs="3371.886876" CO2_abs="310423.613923" HC_abs="22.366003" PMx_abs="4.230552" NOx_abs="117.540756" fuel_abs="99011.498789" electricity_abs="0"/>
    </tripinfo>
    <tripinfo id="f_0_1.1" depart="42.00" departLane="C4C3_0" departPos="5.10" departSpeed="0.00" departDelay="0.00" arrival="178.00" arrivalLane="C2C1_0" arrivalPos="492.80" arrivalSpeed="10.65" duration="136.00" routeLength="1495.00" waitingTime="0.00" waitingCount="0" stopTime="0.00" timeLoss="9.55" rerouteNo="0" devices="tripinfo_f_0_1.1 emissions_f_0_1.1" vType="DEFAULT_VEHTYPE" speedFactor="0.86" vaporized="">
        <emissions CO_abs="2973.807514" CO2_abs="296172.981689" HC_abs="20.150479" PMx_abs="3.547384" NOx_abs="108.743058" fuel_abs="94466.600639" electricity_abs="0"/>
    </tripinfo>
    <tripinfo id="f_0_1.2" depart="45.00" departLane="C4C3_0" departPos="5.10" departSpeed="0.00" departDelay="0.00" arrival="179.00" arrivalLane="C2C1_0" arrivalPos="492.80" arrivalSpeed="12.70" duration="134.00" routeLength="1495.00" waitingTime="0.00" waitingCount="0" stopTime="0.00" timeLoss="28.95" rerouteNo="0" devices="tripinfo_f_0_1.2 emissions_f_0_1.2" vType="DEFAULT_VEHTYPE" speedFactor="1.03" vaporized="">
        <emissions CO_abs="4246.030044" CO2_abs="347805.097733" HC_abs="27.375545" PMx_abs="5.266392" NOx_abs="135.710712" fuel_abs="110934.211331" electricity_abs="0"/>
    </tripinfo>
    <tripinfo id="f_0_0.7" depart="41.00" departLane="A2B2_0" departPos="5.10" departSpeed="0.00" departDelay="0.00" arrival="181.00" arrivalLane="C2D2_0" arrivalPos="492.80" arrivalSpeed="13.00" duration="140.00" routeLength="1495.00" waitingTime="7.00" waitingCount="2" stopTime="0.00" timeLoss="25.12" rerouteNo="0" devices="tripinfo_f_0_0.7 emissions_f_0_0.7" vType="DEFAULT_VEHTYPE" speedFactor="0.94" vaporized="">
        <emissions CO_abs="5544.198402" CO2_abs="359623.597865" HC_abs="33.193805" PMx_abs="5.531514" NOx_abs="140.012308" fuel_abs="114704.445590" electricity_abs="0"/>
    </tripinfo>
    <tripinfo id="f_0_0.8" depart="44.00" departLane="A2B2_0" departPos="5.10" departSpeed="0.00" departDelay="0.00" arrival="183.00" arrivalLane="C2D2_0" arrivalPos="492.80" arrivalSpeed="14.35" duration="139.00" routeLength="1495.00" waitingTime="5.00" waitingCount="2" stopTime="0.00" timeLoss="39.77" rerouteNo="0" devices="tripinfo_f_0_0.8 emissions_f_0_0.8" vType="DEFAULT_VEHTYPE" speedFactor="1.09" vaporized="">
        <emissions CO_abs="6325.858167" CO2_abs="388628.083100" HC_abs="37.515064" PMx_abs="6.573813" NOx_abs="155.697589" fuel_abs="123955.103447" electricity_abs="0"/>
    </tripinfo>
    <tripinfo id="f_0_1.3" depart="60.00" departLane="C4C3_0" departPos="5.10" departSpeed="0.00" departDelay="0.00" arrival="193.00" arrivalLane="C2C1_0" arrivalPos="492.80" arrivalSpeed="12.91" duration="133.00" routeLength="1495.00" waitingTime="8.00" waitingCount="1" stopTime="0.00" timeLoss="24.18" rerouteNo="0" devices="tripinfo_f_0_1.3 emissions_f_0_1.3" vType="DEFAULT_VEHTYPE" speedFactor="0.99" vaporized="">
        <emissions CO_abs="5290.228109" CO2_abs="356620.204767" HC_abs="32.077518" PMx_abs="5.579721" NOx_abs="138.852952" fuel_abs="113746.285654" electricity_abs="0"/>
    </tripinfo>
    <tripinfo id="f_0_1.4" depart="85.00" departLane="C4C3_0" departPos="5.10" departSpeed="0.00" departDelay="0.00" arrival="195.00" arrivalLane="C2C1_0" arrivalPos="492.80" arrivalSpeed="14.88" duration="110.00" routeLength="1495.00" waitingTime="0.00" waitingCount="0" stopTime="0.00" timeLoss="16.40" rerouteNo="0" devices="tripinfo_f_0_1.4 emissions_f_0_1.4" vType="DEFAULT_VEHTYPE" speedFactor="1.16" vaporized="">
        <emissions CO_abs="3141.955951" CO2_abs="329771.764936" HC_abs="21.061645" PMx_abs="4.751659" NOx_abs="123.206844" fuel_abs="105182.180728" electricity_abs="0"/>
    </tripinfo>
    <tripinfo id="f_0_3.0" depart="85.00" departLane="C0C1_0" departPos="5.10" departSpeed="0.00" departDelay="0.00" arrival="199.00" arrivalLane="C2C3_0" arrivalPos="492.80" arrivalSpeed="13.95" duration="114.00" routeLength="1495.00" waitingTime="0.00" waitingCount="0" stopTime="0.00" timeLoss="7.93" rerouteNo="0" devices="tripinfo_f_0_3.0 emissions_f_0_3.0" vType="DEFAULT_VEHTYPE" speedFactor="1.02" vaporized="">
        <emissions CO_abs="2359.319471" CO2_abs="287654.259337" HC_abs="16.472627" PMx_abs="3.676606" NOx_abs="104.476953" fuel_abs="91748.924621" electricity_abs="0"/>
    </tripinfo>
    <tripinfo id="f_0_2.2" depart="67.00" departLane="E2D2_0" departPos="5.10" departSpeed="0.00" departDelay="0.00" arrival="210.00" arrivalLane="C2B2_0" arrivalPos="492.80" arrivalSpeed="12.11" duration="143.00" routeLength="1495.00" waitingTime="12.00" waitingCount="1" stopTime="0.00" timeLoss="26.50" rerouteNo="0" devices="tripinfo_f_0_2.2 emissions_f_0_2.2" vType="DEFAULT_VEHTYPE" speedFactor="0.93" vaporized="">
        <emissions CO_abs="5369.961642" CO2_abs="348624.863655" HC_abs="32.021674" PMx_abs="4.874447" NOx_abs="131.952457" fuel_abs="111196.912825" electricity_abs="0"/>
    </tripinfo>
    <tripinfo id="f_0_0.9" depart="71.00" departLane="A2B2_0" departPos="5.10" departSpeed="0.00" departDelay="0.00" arrival="211.00" arrivalLane="C2D2_0" arrivalPos="492.80" arrivalSpeed="12.14" duration="140.00" routeLength="1495.00" waitingTime="1.00" waitingCount="1" stopTime="0.00" timeLoss="17.30" rerouteNo="0" devices="tripinfo_f_0_0.9 emissions_f_0_0.9" vType="DEFAULT_VEHTYPE" speedFactor="0.88" vaporized="">
        <emissions CO_abs="4192.948814" CO2_abs="330380.071750" HC_abs="26.461694" PMx_abs="4.415333" NOx_abs="124.476320" fuel_abs="105377.217051" electricity_abs="0"/>
    </tripinfo>
    <tripinfo id="f_0_2.3" depart="97.00" departLane="E2D2_0" departPos="5.10" departSpeed="0.00" departDelay="0.00" arrival="212.00" arrivalLane="C2B2_0" arrivalPos="492.80" arrivalSpeed="15.41" duration="115.00" routeLength="1495.00" waitingTime="0.00" waitingCount="0" stopTime="0.00" timeLoss="19.17" rerouteNo="0" devices="tripinfo_f_0_2.3 emissions_f_0_2.3" vType="DEFAULT_VEHTYPE" speedFactor="1.13" vaporized="">
        <emissions CO_abs="3399.981346" CO2_abs="336150.726731" HC_abs="22.528184" PMx_abs="4.928096" NOx_abs="127.080009" fuel_abs="107216.775393" electricity_abs="0"/>
    </tripinfo>
    <tripinfo id="f_0_0.10" depart="74.00" departLane="A2B2_0" departPos="5.10" departSpeed="0.00" departDelay="2.00" arrival="213.00" arrivalLane="C2D2_0" arrivalPos="492.80" arrivalSpeed="13.06" duration="139.00" routeLength="1495.00" waitingTime="0.00" waitingCount="0" stopTime="0.00" timeLoss="24.22" rerouteNo="0" devices="tripinfo_f_0_0.10 emissions_f_0_0.10" vType="DEFAULT_VEHTYPE" speedFactor="0.94" vaporized="">
        <emissions CO_abs="5208.741807" CO2_abs="373172.185001" HC_abs="32.177507" PMx_abs="5.864670" NOx_abs="146.777414" fuel_abs="119025.344739" electricity_abs="0"/>
    </tripinfo>
    <tripinfo id="f_0_0.11" depart="81.00" departLane="A2B2_0" departPos="5.10" departSpeed="0.00" departDelay="0.00" arrival="215.00" arrivalLane="C2D2_0" arrivalPos="492.80" arrivalSpeed="12.04" duration="134.00" routeLength="1495.00" waitingTime="0.00" waitingCount="0" stopTime="0.00" timeLoss="18.34" rerouteNo="0" devices="tripinfo_f_0_0.11 emissions_f_0_0.11" vType="DEFAULT_VEHTYPE" speedFactor="0.94" vaporized="">
        <emissions CO_abs="4040.471684" CO2_abs="335411.943862" HC_abs="25.739117" PMx_abs="4.681806" NOx_abs="126.997229" fuel_abs="106981.833352" electricity_abs="0"/>
    </tripinfo>
    <tripinfo id="f_0_1.5" depart="88.00" departLane="C4C3_0" departPos="5.10" departSpeed="0.00" departDelay="1.00" arrival="220.00" arrivalLane="C2C1_0" arrivalPos="492.80" arrivalSpeed="13.37" duration="132.00" routeLength="1495.00" waitingTime="12.00" waitingCount="1" stopTime="0.00" timeLoss="24.88" rerouteNo="0" devices="tripinfo_f_0_1.5 emissions_f_0_1.5" vType="DEFAULT_VEHTYPE" speedFactor="1.01" vaporized="">
        <emissions CO_abs="5225.881558" CO2_abs="346457.955184" HC_abs="31.120831" PMx_abs="5.224788" NOx_abs="132.804575" fuel_abs="110505.243339" electricity_abs="0"/>
    </tripinfo>
    <tripinfo id="f_0_3.1" depart="88.00" departLane="C0C1_0" departPos="5.10" departSpeed="0.00" departDelay="1.00" arrival="221.00" arrivalLane="C2C3_0" arrivalPos="492.80" arrivalSpeed="12.46" duration="133.00" routeLength="1495.00" waitingTime="8.00" waitingCount="1" stopTime="0.00" timeLoss="22.45" rerouteNo="0" devices="tripinfo_f_0_3.1 emissions_f_0_3.1" vType="DEFAULT_VEHTYPE" speedFactor="0.97" vaporized="">
        <emissions CO_abs="4588.239634" CO2_abs="334512.146955" HC_abs="27.766657" PMx_abs="4.645182" NOx_abs="125.529973" fuel_abs="106695.202436" electricity_abs="0"/>
    </tripinfo>
    <tripinfo id="f_0_1.6" depart="91.00" departLane="C4C3_0" departPos="5.10" departSpeed="0.00" departDelay="1.00" arrival="227.00" arrivalLane="C2C1_0" arrivalPos="492.80" arrivalSpeed="11.22" duration="136.00" routeLength="1495.00" waitingTime="0.00" waitingCount="0" stopTime="0.00" timeLoss="14.28" rerouteNo="0" devices="tripinfo_f_0_1.6 emissions_f_0_1.6" vType="DEFAULT_VEHTYPE" speedFactor="0.89" vaporized="">
        <emissions CO_abs="3863.359099" CO2_abs="319926.364854" HC_abs="24.671337" PMx_abs="4.470946" NOx_abs="121.724819" fuel_abs="102042.579541" electricity_abs="0"/>
    </tripinfo>
    <tripinfo id="f_0_3.2" depart="95.00" departLane="C0C1_0" departPos="5.10" departSpeed="0.00" departDelay="0.00" arrival="228.00" arrivalLane="C2C3_0" arrivalPos="492.80" arrivalSpeed="11.32" duration="133.00" routeLength="1495.00" waitingTime="0.00" waitingCount="0" stopTime="0.00" timeLoss="8.90" rerouteNo="0" devices="tripinfo_f_0_3.2 emissions_f_0_3.2" vType="DEFAULT_VEHTYPE" speedFactor="0.87" vaporized="">
        <emissions CO_abs="2794.656287" CO2_abs="297062.830104" HC_abs="19.226602" PMx_abs="3.487305" NOx_abs="108.229347" fuel_abs="94750.402728" electricity_abs="0"/>
    </tripinfo>
    <tripinfo id="f_0_1.7" depart="96.00" departLane="C4C3_0" departPos="5.10" departSpeed="0.00" departDelay="0.00" arrival="228.00" arrivalLane="C2C1_0" arrivalPos="492.80" arrivalSpeed="12.89" duration="132.00" routeLength="1495.00" waitingTime="0.00" waitingCount="0" stopTime="0.00" timeLoss="18.51" rerouteNo="0" devices="tripinfo_f_0_1.7 emissions_f_0_1.7" vType="DEFAULT_VEHTYPE" speedFactor="0.95" vaporized="">
        <emissions CO_abs="4096.962763" CO2_abs="344975.054419" HC_abs="26.340805" PMx_abs="5.121935" NOx_abs="133.220513" fuel_abs="110031.628820" electricity_abs="0"/>
    </tripinfo>
    <tripinfo id="f_0_0.12" depart="95.00" departLane="A2B2_0" departPos="5.10" departSpeed="0.00" departDelay="0.00" arrival="244.00" arrivalLane="C2D2_0" arrivalPos="492.80" arrivalSpeed="11.35" duration="149.00" routeLength="1495.00" waitingTime="4.00" waitingCount="1" stopTime="0.00" timeLoss="18.05" rerouteNo="0" devices="tripinfo_f_0_0.12 emissions_f_0_0.12" vType="DEFAULT_VEHTYPE" speedFactor="0.83" vaporized="">
        <emissions CO_abs="4797.979819" CO2_abs="335975.581409" HC_abs="29.475689" PMx_abs="4.507876" NOx_abs="127.378285" fuel_abs="107162.232583" electricity_abs="0"/>
    </tripinfo>
    <tripinfo id="f_0_0.13" depart="98.00" departLane="A2B2_0" departPos="5.10" departSpeed="0.00" departDelay="2.00" arrival="246.00" arrivalLane="C2D2_0" arrivalPos="492.80" arrivalSpeed="12.18" duration="148.00" routeLength="1495.00" waitingTime="3.00" waitingCount="1" stopTime="0.00" timeLoss="29.88" rerouteNo="0" devices="tripinfo_f_0_0.13 emissions_f_0_0.13" vType="DEFAULT_VEHTYPE" speedFactor="0.92" vaporized="">
        <emissions CO_abs="5820.777855" CO2_abs="387927.262948" HC_abs="35.473125" PMx_abs="6.127032" NOx_abs="153.712116" fuel_abs="123731.727158" electricity_abs="0"/>
    </tripinfo>
    <tripinfo id="f_1_2.0" depart="153.00" departLane="E2D2_0" departPos="5.10" departSpeed="0.00" departDelay="0.00" arrival="276.00" arrivalLane="C2B2_0" arrivalPos="492.80" arrivalSpeed="16.29" duration="123.00" routeLength="1495.00" waitingTime="16.00" waitingCount="1" stopTime="0.00" timeLoss="31.26" rerouteNo="0" devices="tripinfo_f_1_2.0 emissions_f_1_2.0" vType="DEFAULT_VEHTYPE" speedFactor="1.18" vaporized="">
        <emissions CO_abs="6142.993668" CO2_abs="373332.774528" HC_abs="35.479596" PMx_abs="5.920467" NOx_abs="142.570328" fuel_abs="119077.153834" electricity_abs="0"/>
    </tripinfo>
    <tripinfo id="f_1_0.0" depart="155.00" departLane="A2B2_0" departPos="5.10" departSpeed="0.00" departDelay="0.00" arrival="276.00" arrivalLane="C2D2_0" arrivalPos="492.80" arrivalSpeed="15.33" duration="121.00" routeLength="1495.00" waitingTime="13.00" waitingCount="1" stopTime="0.00" timeLoss="27.43" rerouteNo="0" devices="tripinfo_f_1_0.0 emissions_f_1_0.0" vType="DEFAULT_VEHTYPE" speedFactor="1.15" vaporized="">
        <emissions CO_abs="5519.185669" CO2_abs="359809.568707" HC_abs="32.800018" PMx_abs="5.810683" NOx_abs="138.630664" fuel_abs="114763.515841" electricity_abs="0"/>
    </tripinfo>
    <tripinfo id="f_1_3.0" depart="152.00" departLane="C0C1_0" departPos="5.10" departSpeed="0.00" departDelay="0.00" arrival="277.00" arrivalLane="C2C3_0" arrivalPos="492.80" arrivalSpeed="11.83" duration="125.00" routeLength="1495.00" waitingTime="0.00" waitingCount="0" stopTime="0.00" timeLoss="9.15" rerouteNo="0" devices="tripinfo_f_1_3.0 emissions_f_1_3.0" vType="DEFAULT_VEHTYPE" speedFactor="0.93" vaporized="">
        <emissions CO_abs="2711.210033" CO2_abs="295362.470859" HC_abs="18.537314" PMx_abs="3.688533" NOx_abs="108.045831" fuel_abs="94207.799020" electricity_abs="0"/>
    </tripinfo>
    <tripinfo id="f_1_2.1" depart="163.00" departLane="E2D2_0" departPos="5.10" departSpeed="0.00" departDelay="0.00" arrival="283.00" arrivalLane="C2B2_0" arrivalPos="492.80" arrivalSpeed="13.02" duration="120.00" routeLength="1495.00" waitingTime="0.00" waitingCount="0" stopTime="0.00" timeLoss="11.80" rerouteNo="0" devices="tripinfo_f_1_2.1 emissions_f_1_2.1" vType="DEFAULT_VEHTYPE" speedFactor="0.99" vaporized="">
        <emissions CO_abs="2861.432361" CO2_abs="316845.366985" HC_abs="19.427465" PMx_abs="4.114794" NOx_abs="116.042579" fuel_abs="101059.686292" electricity_abs="0"/>
    </tripinfo>
    <tripinfo id="f_1_2.2" depart="166.00" departLane="E2D2_0" departPos="5.10" departSpeed="0.00" departDelay="2.00" arrival="286.00" arrivalLane="C2B2_0" arrivalPos="492.80" arrivalSpeed="12.32" duration="120.00" routeLength="1495.00" waitingTime="0.00" waitingCount="0" stopTime="0.00" timeLoss="9.25" rerouteNo="0" devices="tripinfo_f_1_2.2 emissions_f_1_2.2" vType="DEFAULT_VEHTYPE" speedFactor="0.97" vaporized="">
        <emissions CO_abs="2474.116496" CO2_abs="290004.944303" HC_abs="17.288346" PMx_abs="3.593711" NOx_abs="105.574309" fuel_abs="92498.880134" electricity_abs="0"/>
    </tripinfo>
    <tripinfo id="f_1_2.3" depart="169.00" departLane="E2D2_0" departPos="5.10" departSpeed="0.00" departDelay="1.00" arrival="288.00" arrivalLane="C2B2_0" arrivalPos="492.80" arrivalSpeed="15.67" duration="119.00" routeLength="1495.00" waitingTime="0.00" waitingCount="0" stopTime="0.00" timeLoss="27.20" rerouteNo="0" devices="tripinfo_f_1_2.3 emissions_f_1_2.3" vType="DEFAULT_VEHTYPE" speedFactor="1.18" vaporized="">
        <emissions CO_abs="3444.714271" CO2_abs="330428.543856" HC_abs="22.968102" PMx_abs="4.987086" NOx_abs="126.960404" fuel_abs="105391.586982" electricity_abs="0"/>
    </tripinfo>
    <tripinfo id="f_1_1.0" depart="175.00" departLane="C4C3_0" departPos="5.10" departSpeed="0.00" departDelay="0.00" arrival="294.00" arrivalLane="C2C1_0" arrivalPos="492.80" arrivalSpeed="13.40" duration="119.00" routeLength="1495.00" waitingTime="0.00" waitingCount="0" stopTime="0.00" timeLoss="13.89" rerouteNo="0" devices="tripinfo_f_1_1.0 emissions_f_1_1.0" vType="DEFAULT_VEHTYPE" speedFactor="1.03" vaporized="">
        <emissions CO_abs="3396.869521" CO2_abs="321436.675272" HC_abs="22.069862" PMx_abs="4.586471" NOx_abs="121.263576" fuel_abs="102523.890086" electricity_abs="0"/>
    </tripinfo>
    <tripinfo id="f_1_3.1" depart="160.00" departLane="C0C1_0" departPos="5.10" departSpeed="0.00" departDelay="0.00" arrival="295.00" arrivalLane="C2C3_0" arrivalPos="492.80" arrivalSpeed="13.19" duration="135.00" routeLength="1495.00" waitingTime="14.00" waitingCount="1" stopTime="0.00" timeLoss="27.42" rerouteNo="0" devices="tripinfo_f_1_3.1 emissions_f_1_3.1" vType="DEFAULT_VEHTYPE" speedFactor="1.01" vaporized="">
        <emissions CO_abs="5808.262190" CO2_abs="358368.882327" HC_abs="34.213616" PMx_abs="5.566204" NOx_abs="138.776564" fuel_abs="114304.393914" electricity_abs="0"/>
    </tripinfo>
    <tripinfo id="f_1_3.2" depart="163.00" departLane="C0C1_0" departPos="5.10" departSpeed="0.00" departDelay="1.00" arrival="297.00" arrivalLane="C2C3_0" arrivalPos="492.80" arrivalSpeed="15.15" duration="134.00" routeLength="1495.00" waitingTime="14.00" waitingCount="1" stopTime="0.00" timeLoss="41.28" rerouteNo="0" devices="tripinfo_f_1_3.2 emissions_f_1_3.2" vType="DEFAULT_VEHTYPE" speedFactor="1.17" vaporized="">
        <emissions CO_abs="6405.390335" CO2_abs="386706.811505" HC_abs="37.367085" PMx_abs="6.351241" NOx_abs="151.780017" fuel_abs="123342.625463" electricity_abs="0"/>
    </tripinfo>
    <tripinfo id="f_1_3.3" depart="166.00" departLane="C0C1_0" departPos="5.10" departSpeed="0.00" departDelay="3.00" arrival="298.00" arrivalLane="C2C3_0" arrivalPos="492.80" arrivalSpeed="13.70" duration="132.00" routeLength="1495.00" waitingTime="12.00" waitingCount="1" stopTime="0.00" timeLoss="26.45" rerouteNo="0" devices="tripinfo_f_1_3.3 emissions_f_1_3.3" vType="DEFAULT_VEHTYPE" speedFactor="1.02" vaporized="">
        <emissions CO_abs="5398.001291" CO2_abs="352565.422898" HC_abs="31.691508" PMx_abs="5.173512" NOx_abs="133.843198" fuel_abs="112453.447109" electricity_abs="0"/>
    </tripinfo>
    <tripinfo id="f_1_1.1" depart="178.00" departLane="C4C3_0" departPos="5.10" departSpeed="0.00" departDelay="1.00" arrival="299.00" arrivalLane="C2C1_0" arrivalPos="492.80" arrivalSpeed="12.57" duration="121.00" routeLength="1495.00" waitingTime="0.00" waitingCount="0" stopTime="0.00" timeLoss="8.47" rerouteNo="0" devices="tripinfo_f_1_1.1 emissions_f_1_1.1" vType="DEFAULT_VEHTYPE" speedFactor="0.96" vaporized="">
        <emissions CO_abs="2613.304365" CO2_abs="292394.270258" HC_abs="18.232383" PMx_abs="3.802389" NOx_abs="107.934662" fuel_abs="93260.856510" electricity_abs="0"/>
    </tripinfo>
    <tripinfo id="f_1_3.4" depart="169.00" departLane="C0C1_0" departPos="5.10" departSpeed="0.00" departDelay="1.00" arrival="300.00" arrivalLane="C2C3_0" arrivalPos="492.80" arrivalSpeed="14.96" duration="131.00" routeLength="1495.00" waitingTime="11.00" waitingCount="1" stopTime="0.00" timeLoss="32.98" rerouteNo="0" devices="tripinfo_f_1_3.4 emissions_f_1_3.4" vType="DEFAULT_VEHTYPE" speedFactor="1.10" vaporized="">
        <emissions CO_abs="5985.406409" CO2_abs="373867.360539" HC_abs="35.398045" PMx_abs="6.129911" NOx_abs="147.067131" fuel_abs="119247.301773" electricity_abs="0"/>
    </tripinfo>
    <tripinfo id="f_1_1.2" depart="181.00" departLane="C4C3_0" departPos="5.10" departSpeed="0.00" departDelay="3.00" arrival="301.00" arrivalLane="C2C1_0" arrivalPos="492.80" arrivalSpeed="13.86" duration="120.00" routeLength="1495.00" waitingTime="0.00" waitingCount="0" stopTime="0.00" timeLoss="15.88" rerouteNo="0" devices="tripinfo_f_1_1.2 emissions_f_1_1.2" vType="DEFAULT_VEHTYPE" speedFactor="1.04" vaporized="">
        <emissions CO_abs="3534.007566" CO2_abs="327545.348171" HC_abs="23.268549" PMx_abs="4.989035" NOx_abs="126.317256" fuel_abs="104471.991997" electricity_abs="0"/>
    </tripinfo>
    <tripinfo id="f_1_3.5" depart="178.00" departLane="C0C1_0" departPos="5.10" departSpeed="0.00" departDelay="0.00" arrival="302.00" arrivalLane="C2C3_0" arrivalPos="492.80" arrivalSpeed="14.87" duration="124.00" routeLength="1495.00" waitingTime="7.00" waitingCount="1" stopTime="0.00" timeLoss="24.34" rerouteNo="0" devices="tripinfo_f_1_3.5 emissions_f_1_3.5" vType="DEFAULT_VEHTYPE" speedFactor="1.09" vaporized="">
        <emissions CO_abs="5312.776148" CO2_abs="368906.838634" HC_abs="32.282549" PMx_abs="6.005562" NOx_abs="144.139093" fuel_abs="117664.829599" electricity_abs="0"/>
    </tripinfo>
    <tripinfo id="f_1_2.4" depart="172.00" departLane="E2D2_0" departPos="5.10" departSpeed="0.00" departDelay="2.00" arrival="315.00" arrivalLane="C2B2_0" arrivalPos="492.80" arrivalSpeed="12.16" duration="143.00" routeLength="1495.00" waitingTime="5.00" waitingCount="2" stopTime="0.00" timeLoss="22.68" rerouteNo="0" devices="tripinfo_f_1_2.4 emissions_f_1_2.4" vType="DEFAULT_VEHTYPE" speedFactor="0.90" vaporized="">
        <emissions CO_abs="5121.358791" CO2_abs="364793.686188" HC_abs="31.358001" PMx_abs="5.198743" NOx_abs="139.308416" fuel_abs="116353.648150" electricity_abs="0"/>
    </tripinfo>
    <tripinfo id="f_1_2.5" depart="177.00" departLane="E2D2_0" departPos="5.10" departSpeed="0.00" departDelay="0.00" arrival="316.00" arrivalLane="C2B2_0" arrivalPos="492.80" arrivalSpeed="13.25" duration="139.00" routeLength="1495.00" waitingTime="3.00" waitingCount="2" stopTime="0.00" timeLoss="40.37" rerouteNo="0" devices="tripinfo_f_1_2.5 emissions_f_1_2.5" vType="DEFAULT_VEHTYPE" speedFactor="1.09" vaporized="">
        <emissions CO_abs="5795.114775" CO2_abs="381007.026766" HC_abs="34.812676" PMx_abs="6.196739" NOx_abs="150.781503" fuel_abs="121524.347467" electricity_abs="0"/>
    </tripinfo>
    <tripinfo id="f_1_2.6" depart="180.00" departLane="E2D2_0" departPos="5.10" departSpeed="0.00" departDelay="2.00" arrival="318.00" arrivalLane="C2B2_0" arrivalPos="492.80" arrivalSpeed="14.47" duration="138.00" routeLength="1495.00" waitingTime="2.00" waitingCount="2" stopTime="0.00" timeLoss="34.42" rerouteNo="0" devices="tripinfo_f_1_2.6 emissions_f_1_2.6" vType="DEFAULT_VEHTYPE" speedFactor="1.04" vaporized="">
        <emissions CO_abs="5809.407269" CO2_abs="406090.512176" HC_abs="35.427977" PMx_abs="6.576105" NOx_abs="160.085281" fuel_abs="129524.720280" electricity_abs="0"/>
    </tripinfo>
    <tripinfo id="f_1_2.7" depart="183.00" departLane="E2D2_0" departPos="5.10" departSpeed="0.00" departDelay="0.00" arrival="320.00" arrivalLane="C2B2_0" arrivalPos="492.80" arrivalSpeed="12.88" duration="137.00" routeLength="1495.00" waitingTime="0.00" waitingCount="0" stopTime="0.00" timeLoss="28.52" rerouteNo="0" devices="tripinfo_f_1_2.7 emissions_f_1_2.7" vType="DEFAULT_VEHTYPE" speedFactor="1.00" vaporized="">
        <emissions CO_abs="5814.054472" CO2_abs="397970.919569" HC_abs="35.533981" PMx_abs="6.785817" NOx_abs="160.063485" fuel_abs="126934.557369" electricity_abs="0"/>
    </tripinfo>
    <tripinfo id="f_1_2.8" depart="186.00" departLane="E2D2_0" departPos="5.10" departSpeed="0.00" departDelay="1.00" arrival="322.00" arrivalLane="C2B2_0" arrivalPos="492.80" arrivalSpeed="12.02" duration="136.00" routeLength="1495.00" waitingTime="0.00" waitingCount="0" stopTime="0.00" timeLoss="16.34" rerouteNo="0" devices="tripinfo_f_1_2.8 emissions_f_1_2.8" vType="DEFAULT_VEHTYPE" speedFactor="0.90" vaporized="">