<?xml version="1.0" encoding="UTF-8"?>

<!-- generated on 2024-08-22 13:37:18 by Eclipse SUMO sumo Version 1.17.0
<configuration xmlns:xsi="http://www.w3.org/2001/XMLSchema-instance" xsi:noNamespaceSchemaLocation="http://sumo.dlr.de/xsd/sumoConfiguration.xsd">

    <input>
        <net-file value="single_neat.net.xml"/>
        <route-files value="single_3.rou.xml"/>
    </input>

    <output>
        <tripinfo-output value="emissions_test\z14_data_All_stepThreshold_3000_gen_80_3emissionssingle.xml"/>
    </output>

    <processing>
        <time-to-teleport value="-1"/>
    </processing>

    <report>
        <no-warnings value="true"/>
    </report>

    <emissions>
        <device.emissions.probability value="1.0"/>
    </emissions>

    <traci_server>
        <remote-port value="58252"/>
    </traci_server>

</configuration>
-->

<tripinfos xmlns:xsi="http://www.w3.org/2001/XMLSchema-instance" xsi:noNamespaceSchemaLocation="http://sumo.dlr.de/xsd/tripinfo_file.xsd">
    <tripinfo id="f_0_0.0" depart="2.00" departLane="A2B2_0" departPos="5.10" departSpeed="0.00" departDelay="0.00" arrival="134.00" arrivalLane="C2D2_0" arrivalPos="492.80" arrivalSpeed="14.15" duration="132.00" routeLength="1495.00" waitingTime="17.00" waitingCount="1" stopTime="0.00" timeLoss="29.74" rerouteNo="0" devices="tripinfo_f_0_0.0 emissions_f_0_0.0" vType="DEFAULT_VEHTYPE" speedFactor="1.06" vaporized="">
        <emissions CO_abs="6035.941933" CO2_abs="366172.412686" HC_abs="35.022580" PMx_abs="5.701726" NOx_abs="140.649667" fuel_abs="116793.430947" electricity_abs="0"/>
    </tripinfo>
    <tripinfo id="f_0_0.1" depart="5.00" departLane="A2B2_0" departPos="5.10" departSpeed="0.00" departDelay="0.00" arrival="141.00" arrivalLane="C2D2_0" arrivalPos="492.80" arrivalSpeed="12.21" duration="136.00" routeLength="1495.00" waitingTime="6.00" waitingCount="1" stopTime="0.00" timeLoss="20.43" rerouteNo="0" devices="tripinfo_f_0_0.1 emissions_f_0_0.1" vType="DEFAULT_VEHTYPE" speedFactor="0.94" vaporized="">
        <emissions CO_abs="4407.471511" CO2_abs="333771.361191" HC_abs="27.187802" PMx_abs="4.531951" NOx_abs="124.979657" fuel_abs="106458.974453" electricity_abs="0"/>
    </tripinfo>
    <tripinfo id="f_0_0.2" depart="10.00" departLane="A2B2_0" departPos="5.10" departSpeed="0.00" departDelay="0.00" arrival="142.00" arrivalLane="C2D2_0" arrivalPos="492.80" arrivalSpeed="12.96" duration="132.00" routeLength="1495.00" waitingTime="5.00" waitingCount="1" stopTime="0.00" timeLoss="25.24" rerouteNo="0" devices="tripinfo_f_0_0.2 emissions_f_0_0.2" vType="DEFAULT_VEHTYPE" speedFactor="1.01" vaporized="">
        <emissions CO_abs="5051.272647" CO2_abs="352240.872291" HC_abs="30.882456" PMx_abs="5.627513" NOx_abs="138.253033" fuel_abs="112349.193809" electricity_abs="0"/>
    </tripinfo>
    <tripinfo id="f_0_0.3" depart="16.00" departLane="A2B2_0" departPos="5.10" departSpeed="0.00" departDelay="0.00" arrival="144.00" arrivalLane="C2D2_0" arrivalPos="492.80" arrivalSpeed="14.24" duration="128.00" routeLength="1495.00" waitingTime="4.00" waitingCount="1" stopTime="0.00" timeLoss="27.91" rerouteNo="0" devices="tripinfo_f_0_0.3 emissions_f_0_0.3" vType="DEFAULT_VEHTYPE" speedFactor="1.08" vaporized="">
        <emissions CO_abs="5004.928104" CO2_abs="372047.374279" HC_abs="30.965425" PMx_abs="5.929210" NOx_abs="145.221613" fuel_abs="118666.417589" electricity_abs="0"/>
    </tripinfo>
    <tripinfo id="f_0_0.4" depart="20.00" departLane="A2B2_0" departPos="5.10" departSpeed="0.00" departDelay="0.00" arrival="146.00" arrivalLane="C2D2_0" arrivalPos="492.80" arrivalSpeed="13.16" duration="126.00" routeLength="1495.00" waitingTime="2.00" waitingCount="1" stopTime="0.00" timeLoss="20.68" rerouteNo="0" devices="tripinfo_f_0_0.4 emissions_f_0_0.4" vType="DEFAULT_VEHTYPE" speedFactor="1.03" vaporized="">
        <emissions CO_abs="4258.275750" CO2_abs="341025.035917" HC_abs="26.698592" PMx_abs="5.125453" NOx_abs="130.636479" fuel_abs="108771.841002" electricity_abs="0"/>
    </tripinfo>
    <tripinfo id="f_0_1.0" depart="26.00" departLane="C4C3_0" departPos="5.10" departSpeed="0.00" departDelay="0.00" arrival="148.00" arrivalLane="C2C1_0" arrivalPos="492.80" arrivalSpeed="13.72" duration="122.00" routeLength="1495.00" waitingTime="4.00" waitingCount="1" stopTime="0.00" timeLoss="18.95" rerouteNo="0" devices="tripinfo_f_0_1.0 emissions_f_0_1.0" vType="DEFAULT_VEHTYPE" speedFactor="1.05" vaporized="">
        <emissions CO_abs="4093.148999" CO2_abs="333563.201535" HC_abs="25.600102" PMx_abs="4.816568" NOx_abs="125.240470" fuel_abs="106392.061552" electricity_abs="0"/>
    </tripinfo>
    <tripinfo id="f_0_1.1" depart="29.00" departLane="C4C3_0" departPos="5.10" departSpeed="0.00" departDelay="2.00" arrival="160.00" arrivalLane="C2C1_0" arrivalPos="492.80" arrivalSpeed="11.82" duration="131.00" routeLength="1495.00" waitingTime="0.00" waitingCount="0" stopTime="0.00" timeLoss="9.02" rerouteNo="0" devices="tripinfo_f_0_1.1 emissions_f_0_1.1" vType="DEFAULT_VEHTYPE" speedFactor="0.89" vaporized="">
        <emissions CO_abs="3052.062807" CO2_abs="305344.592334" HC_abs="20.714780" PMx_abs="3.896025" NOx_abs="113.498917" fuel_abs="97391.670897" electricity_abs="0"/>
    </tripinfo>
    <tripinfo id="f_0_1.2" depart="32.00" departLane="C4C3_0" departPos="5.10" departSpeed="0.00" departDelay="3.00" arrival="169.00" arrivalLane="C2C1_0" arrivalPos="492.80" arrivalSpeed="11.38" duration="137.00" routeLength="1495.00" waitingTime="0.00" waitingCount="0" stopTime="0.00" timeLoss="10.46" rerouteNo="0" devices="tripinfo_f_0_1.2 emissions_f_0_1.2" vType="DEFAULT_VEHTYPE" speedFactor="0.86" vaporized="">
        <emissions CO_abs="3175.732683" CO2_abs="304858.217433" HC_abs="21.271807" PMx_abs="3.711743" NOx_abs="112.396295" fuel_abs="97236.823457" electricity_abs="0"/>
    </tripinfo>
    <tripinfo id="f_0_2.0" depart="40.00" departLane="E2D2_0" departPos="5.10" departSpeed="0.00" departDelay="0.00" arrival="172.00" arrivalLane="C2B2_0" arrivalPos="492.80" arrivalSpeed="13.12" duration="132.00" routeLength="1495.00" waitingTime="10.00" waitingCount="1" stopTime="0.00" timeLoss="22.72" rerouteNo="0" devices="tripinfo_f_0_2.0 emissions_f_0_2.0" vType="DEFAULT_VEHTYPE" speedFactor="0.99" vaporized="">
        <emissions CO_abs="4696.414119" CO2_abs="345669.843761" HC_abs="28.446276" PMx_abs="4.846212" NOx_abs="129.783280" fuel_abs="110253.963151" electricity_abs="0"/>
    </tripinfo>
    <tripinfo id="f_0_2.1" depart="43.00" departLane="E2D2_0" departPos="5.10" departSpeed="0.00" departDelay="1.00" arrival="176.00" arrivalLane="C2B2_0" arrivalPos="492.80" arrivalSpeed="12.07" duration="133.00" routeLength="1495.00" waitingTime="2.00" waitingCount="1" stopTime="0.00" timeLoss="18.08" rerouteNo="0" devices="tripinfo_f_0_2.1 emissions_f_0_2.1" vType="DEFAULT_VEHTYPE" speedFactor="0.94" vaporized="">
        <emissions CO_abs="3865.974649" CO2_abs="323479.441089" HC_abs="24.135409" PMx_abs="4.150702" NOx_abs="119.208903" fuel_abs="103176.283489" electricity_abs="0"/>
    </tripinfo>
    <tripinfo id="f_0_2.2" depart="46.00" departLane="E2D2_0" departPos="5.10" departSpeed="0.00" departDelay="1.00" arrival="178.00" arrivalLane="C2B2_0" arrivalPos="492.80" arrivalSpeed="13.54" duration="132.00" routeLength="1495.00" waitingTime="2.00" waitingCount="1" stopTime="0.00" timeLoss="24.52" rerouteNo="0" devices="tripinfo_f_0_2.2 emissions_f_0_2.2" vType="DEFAULT_VEHTYPE" speedFactor="1.01" vaporized="">
        <emissions CO_abs="4625.361283" CO2_abs="354082.768003" HC_abs="28.935231" PMx_abs="5.409404" NOx_abs="137.248229" fuel_abs="112936.696284" electricity_abs="0"/>
    </tripinfo>
    <tripinfo id="f_0_0.5" depart="25.00" departLane="A2B2_0" departPos="5.10" departSpeed="0.00" departDelay="0.00" arrival="179.00" arrivalLane="C2D2_0" arrivalPos="492.80" arrivalSpeed="10.38" duration="154.00" routeLength="1495.00" waitingTime="10.00" waitingCount="1" stopTime="0.00" timeLoss="24.11" rerouteNo="0" devices="tripinfo_f_0_0.5 emissions_f_0_0.5" vType="DEFAULT_VEHTYPE" speedFactor="0.83" vaporized="">
        <emissions CO_abs="5558.471112" CO2_abs="347724.265703" HC_abs="33.192359" PMx_abs="4.793472" NOx_abs="132.627913" fuel_abs="110909.805056" electricity_abs="0"/>
    </tripinfo>
    <tripinfo id="f_0_2.3" depart="50.00" departLane="E2D2_0" departPos="5.10" departSpeed="0.00" departDelay="0.00" arrival="179.00" arrivalLane="C2B2_0" arrivalPos="492.80" arrivalSpeed="13.45" duration="129.00" routeLength="1495.00" waitingTime="0.00" waitingCount="0" stopTime="0.00" timeLoss="18.40" rerouteNo="0" devices="tripinfo_f_0_2.3 emissions_f_0_2.3" vType="DEFAULT_VEHTYPE" speedFactor="0.97" vaporized="">
        <emissions CO_abs="3979.677829" CO2_abs="332930.275941" HC_abs="25.266436" PMx_abs="4.699856" NOx_abs="125.696474" fuel_abs="106190.219907" electricity_abs="0"/>
    </tripinfo>
    <tripinfo id="f_0_0.6" depart="29.00" departLane="A2B2_0" departPos="5.10" departSpeed="0.00" departDelay="0.00" arrival="181.00" arrivalLane="C2D2_0" arrivalPos="492.80" arrivalSpeed="12.74" duration="152.00" routeLength="1495.00" waitingTime="9.00" waitingCount="1" stopTime="0.00" timeLoss="36.56" rerouteNo="0" devices="tripinfo_f_0_0.6 emissions_f_0_0.6" vType="DEFAULT_VEHTYPE" speedFactor="0.94" vaporized="">
        <emissions CO_abs="6473.574101" CO2_abs="390505.681729" HC_abs="38.387171" PMx_abs="6.154760" NOx_abs="154.127736" fuel_abs="124554.573596" electricity_abs="0"/>
    </tripinfo>
    <tripinfo id="f_0_0.7" depart="32.00" departLane="A2B2_0" departPos="5.10" departSpeed="0.00" departDelay="0.00" arrival="182.00" arrivalLane="C2D2_0" arrivalPos="492.80" arrivalSpeed="14.05" duration="150.00" routeLength="1495.00" waitingTime="7.00" waitingCount="1" stopTime="0.00" timeLoss="51.26" rerouteNo="0" devices="tripinfo_f_0_0.7 emissions_f_0_0.7" vType="DEFAULT_VEHTYPE" speedFactor="1.09" vaporized="">
        <emissions CO_abs="6927.681177" CO2_abs="398500.047366" HC_abs="40.784140" PMx_abs="6.956926" NOx_abs="162.324423" fuel_abs="127103.808281" electricity_abs="0"/>
    </tripinfo>
    <tripinfo id="f_0_0.8" depart="35.00" departLane="A2B2_0" departPos="5.10" departSpeed="0.00" departDelay="1.00" arrival="184.00" arrivalLane="C2D2_0" arrivalPos="492.80" arrivalSpeed="13.54" duration="149.00" routeLength="1495.00" waitingTime="7.00" waitingCount="1" stopTime="0.00" timeLoss="43.84" rerouteNo="0" devices="tripinfo_f_0_0.8 emissions_f_0_0.8" vType="DEFAULT_VEHTYPE" speedFactor="1.03" vaporized="">
        <emissions CO_abs="7012.669398" CO2_abs="415284.189332" HC_abs="41.507089" PMx_abs="7.262496" NOx_abs="168.936418" fuel_abs="132457.070970" electricity_abs="0"/>
    </tripinfo>
    <tripinfo id="f_0_3.0" depart="80.00" departLane="C0C1_0" departPos="5.10" departSpeed="0.00" departDelay="0.00" arrival="185.00" arrivalLane="C2C3_0" arrivalPos="492.80" arrivalSpeed="15.20" duration="105.00" routeLength="1495.00" waitingTime="0.00" waitingCount="0" stopTime="0.00" timeLoss="7.36" rerouteNo="0" devices="tripinfo_f_0_3.0 emissions_f_0_3.0" vType="DEFAULT_VEHTYPE" speedFactor="1.10" vaporized="">
        <emissions CO_abs="2094.636206" CO2_abs="279599.390959" HC_abs="14.986377" PMx_abs="3.622497" NOx_abs="100.214268" fuel_abs="89179.643536" electricity_abs="0"/>
    </tripinfo>
    <tripinfo id="f_0_0.9" depart="39.00" departLane="A2B2_0" departPos="5.10" departSpeed="0.00" departDelay="0.00" arrival="186.00" arrivalLane="C2D2_0" arrivalPos="492.80" arrivalSpeed="14.49" duration="147.00" routeLength="1495.00" waitingTime="6.00" waitingCount="1" stopTime="0.00" timeLoss="43.48" rerouteNo="0" devices="tripinfo_f_0_0.9 emissions_f_0_0.9" vType="DEFAULT_VEHTYPE" speedFactor="1.05" vaporized="">
        <emissions CO_abs="7198.362049" CO2_abs="436340.506666" HC_abs="42.806533" PMx_abs="7.702747" NOx_abs="177.764051" fuel_abs="139172.894621" electricity_abs="0"/>
    </tripinfo>
    <tripinfo id="f_0_1.3" depart="42.00" departLane="C4C3_0" departPos="5.10" departSpeed="0.00" departDelay="0.00" arrival="191.00" arrivalLane="C2C1_0" arrivalPos="492.80" arrivalSpeed="11.33" duration="149.00" routeLength="1495.00" waitingTime="12.00" waitingCount="1" stopTime="0.00" timeLoss="25.69" rerouteNo="0" devices="tripinfo_f_0_1.3 emissions_f_0_1.3" vType="DEFAULT_VEHTYPE" speedFactor="0.88" vaporized="">
        <emissions CO_abs="5958.544006" CO2_abs="349551.520526" HC_abs="35.071387" PMx_abs="5.390940" NOx_abs="136.858029" fuel_abs="111492.212825" electricity_abs="0"/>
    </tripinfo>
    <tripinfo id="f_0_1.4" depart="45.00" departLane="C4C3_0" departPos="5.10" departSpeed="0.00" departDelay="0.00" arrival="192.00" arrivalLane="C2C1_0" arrivalPos="492.80" arrivalSpeed="13.64" duration="147.00" routeLength="1495.00" waitingTime="11.00" waitingCount="1" stopTime="0.00" timeLoss="41.04" rerouteNo="0" devices="tripinfo_f_0_1.4 emissions_f_0_1.4" vType="DEFAULT_VEHTYPE" speedFactor="1.02" vaporized="">
        <emissions CO_abs="6735.728538" CO2_abs="393944.633679" HC_abs="39.680034" PMx_abs="6.468980" NOx_abs="157.094988" fuel_abs="125651.277661" electricity_abs="0"/>
    </tripinfo>
    <tripinfo id="f_0_1.5" depart="51.00" departLane="C4C3_0" departPos="5.10" departSpeed="0.00" departDelay="0.00" arrival="194.00" arrivalLane="C2C1_0" arrivalPos="492.80" arrivalSpeed="11.80" duration="143.00" routeLength="1495.00" waitingTime="7.00" waitingCount="1" stopTime="0.00" timeLoss="21.83" rerouteNo="0" devices="tripinfo_f_0_1.5 emissions_f_0_1.5" vType="DEFAULT_VEHTYPE" speedFactor="0.89" vaporized="">
        <emissions CO_abs="5147.668764" CO2_abs="350693.129352" HC_abs="31.286232" PMx_abs="5.092353" NOx_abs="134.746605" fuel_abs="111856.208745" electricity_abs="0"/>
    </tripinfo>
    <tripinfo id="f_0_3.1" depart="83.00" departLane="C0C1_0" departPos="5.10" departSpeed="0.00" departDelay="2.00" arrival="195.00" arrivalLane="C2C3_0" arrivalPos="492.80" arrivalSpeed="13.32" duration="112.00" routeLength="1495.00" waitingTime="0.00" waitingCount="0" stopTime="0.00" timeLoss="7.32" rerouteNo="0" devices="tripinfo_f_0_3.1 emissions_f_0_3.1" vType="DEFAULT_VEHTYPE" speedFactor="1.03" vaporized="">
        <emissions CO_abs="2276.762094" CO2_abs="281971.405569" HC_abs="16.172366" PMx_abs="3.723386" NOx_abs="103.274262" fuel_abs="89936.220236" electricity_abs="0"/>
    </tripinfo>
    <tripinfo id="f_0_0.10" depart="42.00" departLane="A2B2_0" departPos="5.10" departSpeed="0.00" departDelay="2.00" arrival="199.00" arrivalLane="C2D2_0" arrivalPos="492.80" arrivalSpeed="15.48" duration="157.00" routeLength="1495.00" waitingTime="27.00" waitingCount="3" stopTime="0.00" timeLoss="60.55" rerouteNo="0" devices="tripinfo_f_0_0.10 emissions_f_0_0.10" vType="DEFAULT_VEHTYPE" speedFactor="1.12" vaporized="">
        <emissions CO_abs="10239.254570" CO2_abs="472127.960645" HC_abs="56.971155" PMx_abs="8.454624" NOx_abs="190.773732" fuel_abs="150588.967000" electricity_abs="0"/>
    </tripinfo>
    <tripinfo id="f_0_1.6" depart="56.00" departLane="C4C3_0" departPos="5.10" departSpeed="0.00" departDelay="0.00" arrival="204.00" arrivalLane="C2C1_0" arrivalPos="492.80" arrivalSpeed="10.25" duration="148.00" routeLength="1495.00" waitingTime="3.00" waitingCount="1" stopTime="0.00" timeLoss="17.43" rerouteNo="0" devices="tripinfo_f_0_1.6 emissions_f_0_1.6" vType="DEFAULT_VEHTYPE" speedFactor="0.83" vaporized="">
        <emissions CO_abs="4537.306072" CO2_abs="327273.578948" HC_abs="28.058200" PMx_abs="4.287365" NOx_abs="123.430651" fuel_abs="104386.683529" electricity_abs="0"/>
    </tripinfo>
    <tripinfo id="f_0_1.7" depart="59.00" departLane="C4C3_0" departPos="5.10" departSpeed="0.00" departDelay="1.00" arrival="206.00" arrivalLane="C2C1_0" arrivalPos="492.80" arrivalSpeed="11.02" duration="147.00" routeLength="1495.00" waitingTime="2.00" waitingCount="1" stopTime="0.00" timeLoss="23.15" rerouteNo="0" devices="tripinfo_f_0_1.7 emissions_f_0_1.7" vType="DEFAULT_VEHTYPE" speedFactor="0.87" vaporized="">
        <emissions CO_abs="5107.951020" CO2_abs="362069.373450" HC_abs="31.465836" PMx_abs="5.235518" NOx_abs="139.832983" fuel_abs="115484.578403" electricity_abs="0"/>
    </tripinfo>
    <tripinfo id="f_0_2.4" depart="65.00" departLane="E2D2_0" departPos="5.10" departSpeed="0.00" departDelay="0.00" arrival="206.00" arrivalLane="C2B2_0" arrivalPos="492.80" arrivalSpeed="11.69" duration="141.00" routeLength="1495.00" waitingTime="11.00" waitingCount="1" stopTime="0.00" timeLoss="25.14" rerouteNo="0" devices="tripinfo_f_0_2.4 emissions_f_0_2.4" vType="DEFAULT_VEHTYPE" speedFactor="0.93" vaporized="">
        <emissions CO_abs="5467.996398" CO2_abs="348868.947187" HC_abs="32.463753" PMx_abs="5.131182" NOx_abs="133.732161" fuel_abs="111274.526184" electricity_abs="0"/>
    </tripinfo>
    <tripinfo id="f_0_0.11" depart="45.00" departLane="A2B2_0" departPos="5.10" departSpeed="0.00" departDelay="4.00" arrival="208.00" arrivalLane="C2D2_0" arrivalPos="492.80" arrivalSpeed="12.50" duration="163.00" routeLength="1495.00" waitingTime="19.00" waitingCount="2" stopTime="0.00" timeLoss="46.01" rerouteNo="0" devices="tripinfo_f_0_0.11 emissions_f_0_0.11" vType="DEFAULT_VEHTYPE" speedFactor="0.93" vaporized="">
        <emissions CO_abs="8980.637805" CO2_abs="431956.851807" HC_abs="50.601460" PMx_abs="7.236393" NOx_abs="172.854495" fuel_abs="137776.384782" electricity_abs="0"/>
    </tripinfo>
    <tripinfo id="f_0_2.5" depart="68.00" departLane="E2D2_0" departPos="5.10" departSpeed="0.00" departDelay="1.00" arrival="208.00" arrivalLane="C2B2_0" arrivalPos="492.80" arrivalSpeed="15.92" duration="140.00" routeLength="1495.00" waitingTime="11.00" waitingCount="1" stopTime="0.00" timeLoss="47.95" rerouteNo="0" devices="tripinfo_f_0_2.5 emissions_f_0_2.5" vType="DEFAULT_VEHTYPE" speedFactor="1.18" vaporized="">
        <emissions CO_abs="6556.069554" CO2_abs="403669.205779" HC_abs="39.046172" PMx_abs="6.789458" NOx_abs="161.317021" fuel_abs="128752.630718" electricity_abs="0"/>
    </tripinfo>
    <tripinfo id="f_0_0.12" depart="48.00" departLane="A2B2_0" departPos="5.10" departSpeed="0.00" departDelay="4.00" arrival="210.00" arrivalLane="C2D2_0" arrivalPos="492.80" arrivalSpeed="12.96" duration="162.00" routeLength="1495.00" waitingTime="18.00" waitingCount="2" stopTime="0.00" timeLoss="46.05" rerouteNo="0" devices="tripinfo_f_0_0.12 emissions_f_0_0.12" vType="DEFAULT_VEHTYPE" speedFactor="0.94" vaporized="">
        <emissions CO_abs="8356.783764" CO2_abs="417586.424281" HC_abs="47.454843" PMx_abs="6.766772" NOx_abs="165.383138" fuel_abs="133192.883380" electricity_abs="0"/>
    </tripinfo>
    <tripinfo id="f_0_2.6" depart="79.00" departLane="E2D2_0" departPos="5.10" departSpeed="0.00" departDelay="0.00" arrival="210.00" arrivalLane="C2B2_0" arrivalPos="492.80" arrivalSpeed="12.35" duration="131.00" routeLength="1495.00" waitingTime="4.00" waitingCount="1" stopTime="0.00" timeLoss="19.58" rerouteNo="0" devices="tripinfo_f_0_2.6 emissions_f_0_2.6" vType="DEFAULT_VEHTYPE" speedFactor="0.97" vaporized="">
        <emissions CO_abs="4530.594983" CO2_abs="347834.987923" HC_abs="28.146591" PMx_abs="5.176194" NOx_abs="133.660389" fuel_abs="110944.069617" electricity_abs="0"/>
    </tripinfo>
    <tripinfo id="f_0_0.13" depart="51.00" departLane="A2B2_0" departPos="5.10" departSpeed="0.00" departDelay="6.00" arrival="211.00" arrivalLane="C2D2_0" arrivalPos="492.80" arrivalSpeed="14.02" duration="160.00" routeLength="1495.00" waitingTime="16.00" waitingCount="2" stopTime="0.00" timeLoss="66.82" rerouteNo="0" devices="tripinfo_f_0_0.13 emissions_f_0_0.13" vType="DEFAULT_VEHTYPE" speedFactor="1.16" vaporized="">
        <emissions CO_abs="8632.095657" CO2_abs="432840.784825" HC_abs="49.113578" PMx_abs="7.411307" NOx_abs="174.218011" fuel_abs="138057.909460" electricity_abs="0"/>
    </tripinfo>
    <tripinfo id="f_0_0.14" depart="59.00" departLane="A2B2_0" departPos="5.10" departSpeed="0.00" departDelay="0.00" arrival="213.00" arrivalLane="C2D2_0" arrivalPos="492.80" arrivalSpeed="11.93" duration="154.00" routeLength="1495.00" waitingTime="14.00" waitingCount="1" stopTime="0.00" timeLoss="36.51" rerouteNo="0" devices="tripinfo_f_0_0.14 emissions_f_0_0.14" vType="DEFAULT_VEHTYPE" speedFactor="0.92" vaporized="">
        <emissions CO_abs="7130.034583" CO2_abs="387301.130519" HC_abs="41.055827" PMx_abs="5.937466" NOx_abs="150.886546" fuel_abs="123533.130039" electricity_abs="0"/>
    </tripinfo>
    <tripinfo id="f_0_3.2" depart="86.00" departLane="C0C1_0" departPos="5.10" departSpeed="0.00" departDelay="1.00" arrival="215.00" arrivalLane="C2C3_0" arrivalPos="492.80" arrivalSpeed="13.12" duration="129.00" routeLength="1495.00" waitingTime="12.00" waitingCount="1" stopTime="0.00" timeLoss="25.09" rerouteNo="0" devices="tripinfo_f_0_3.2 emissions_f_0_3.2" vType="DEFAULT_VEHTYPE" speedFactor="1.04" vaporized="">
        <emissions CO_abs="5104.912651" CO2_abs="339710.784783" HC_abs="30.222181" PMx_abs="5.117232" NOx_abs="129.703797" fuel_abs="108353.159853" electricity_abs="0"/>
    </tripinfo>
    <tripinfo id="f_0_3.3" depart="89.00" departLane="C0C1_0" departPos="5.10" departSpeed="0.00" departDelay="3.00" arrival="218.00" arrivalLane="C2C3_0" arrivalPos="492.80" arrivalSpeed="14.33" duration="129.00" routeLength="1495.00" waitingTime="10.00" waitingCount="1" stopTime="0.00" timeLoss="24.94" rerouteNo="0" devices="tripinfo_f_0_3.3 emissions_f_0_3.3" vType="DEFAULT_VEHTYPE" speedFactor="1.04" vaporized="">
        <emissions CO_abs="4992.497571" CO2_abs="351339.467119" HC_abs="30.119942" PMx_abs="5.185100" NOx_abs="132.989038" fuel_abs="112062.209256" electricity_abs="0"/>
    </tripinfo>
    <tripinfo id="f_0_1.8" depart="62.00" departLane="C4C3_0" departPos="5.10" departSpeed="0.00" departDelay="2.00" arrival="219.00" arrivalLane="C2C1_0" arrivalPos="492.80" arrivalSpeed="12.05" duration="157.00" routeLength="1495.00" waitingTime="13.00" waitingCount="2" stopTime="0.00" timeLoss="43.21" rerouteNo="0" devices="tripinfo_f_0_1.8 emissions_f_0_1.8" vType="DEFAULT_VEHTYPE" speedFactor="0.95" vaporized="">
        <emissions CO_abs="7309.136298" CO2_abs="400433.636807" HC_abs="42.261100" PMx_abs="6.481044" NOx_abs="158.661841" fuel_abs="127721.409759" electricity_abs="0"/>
    </tripinfo>
    <tripinfo id="f_0_1.9" depart="69.00" departLane="C4C3_0" departPos="5.10" departSpeed="0.00" departDelay="0.00" arrival="221.00" arrivalLane="C2C1_0" arrivalPos="492.80" arrivalSpeed="14.93" duration="152.00" routeLength="1495.00" waitingTime="12.00" waitingCount="1" stopTime="0.00" timeLoss="57.92" rerouteNo="0" devices="tripinfo_f_0_1.9 emissions_f_0_1.9" vType="DEFAULT_VEHTYPE" speedFactor="1.15" vaporized="">
        <emissions CO_abs="7934.459578" CO2_abs="441541.823775" HC_abs="45.968094" PMx_abs="7.501699" NOx_abs="177.294639" fuel_abs="140832.644363" electricity_abs="0"/>
    </tripinfo>
    <tripinfo id="f_0_3.4" depart="92.00" departLane="C0C1_0" departPos="5.10" departSpeed="0.00" departDelay="5.00" arrival="221.00" arrivalLane="C2C3_0" arrivalPos="492.80" arrivalSpeed="13.06" duration="129.00" routeLength="1495.00" waitingTime="7.00" waitingCount="1" stopTime="0.00" timeLoss="20.52" rerouteNo="0" devices="tripinfo_f_0_3.4 emissions_f_0_3.4" vType="DEFAULT_VEHTYPE" speedFactor="1.00" vaporized="">
        <emissions CO_abs="4488.997369" CO2_abs="342811.685491" HC_abs="27.609441" PMx_abs="4.886356" NOx_abs="129.074694" fuel_abs="109342.152328" electricity_abs="0"/>
    </tripinfo>
    <tripinfo id="f_0_1.10" depart="73.00" departLane="C4C3_0" departPos="5.10" departSpeed="0.00" departDelay="0.00" arrival="222.00" arrivalLane="C2C1_0" arrivalPos="492.80" arrivalSpeed="13.07" duration="149.00" routeLength="1495.00" waitingTime="12.00" waitingCount="1" stopTime="0.00" timeLoss="40.71" rerouteNo="0" devices="tripinfo_f_0_1.10 emissions_f_0_1.10" vType="DEFAULT_VEHTYPE" speedFactor="0.99" vaporized="">
        <emissions CO_abs="7331.973179" CO2_abs="411441.552359" HC_abs="42.825096" PMx_abs="7.037250" NOx_abs="165.934048" fuel_abs="131231.895520" electricity_abs="0"/>
    </tripinfo>
    <tripinfo id="f_0_1.11" depart="77.00" departLane="C4C3_0" departPos="5.10" departSpeed="0.00" departDelay="0.00" arrival="224.00" arrivalLane="C2C1_0" arrivalPos="492.80" arrivalSpeed="13.41" duration="147.00" routeLength="1495.00" waitingTime="11.00" waitingCount="1" stopTime="0.00" timeLoss="41.06" rerouteNo="0" devices="tripinfo_f_0_1.11 emissions_f_0_1.11" vType="DEFAULT_VEHTYPE" speedFactor="1.02" vaporized="">
        <emissions CO_abs="7331.628113" CO2_abs="424409.828702" HC_abs="43.126577" PMx_abs="7.519524" NOx_abs="172.764127" fuel_abs="135367.761006" electricity_abs="0"/>
    </tripinfo>
    <tripinfo id="f_0_1.12" depart="80.00" departLane="C4C3_0" departPos="5.10" departSpeed="0.00" departDelay="0.00" arrival="226.00" arrivalLane="C2C1_0" arrivalPos="492.80" arrivalSpeed="15.29" duration="146.00" routeLength="1495.00" waitingTime="10.00" waitingCount="1" stopTime="0.00" timeLoss="54.04" rerouteNo="0" devices="tripinfo_f_0_1.12 emissions_f_0_1.12" vType="DEFAULT_VEHTYPE" speedFactor="1.18" vaporized="">
        <emissions CO_abs="7649.496835" CO2_abs="445864.252062" HC_abs="44.899189" PMx_abs="7.869938" NOx_abs="180.887958" fuel_abs="142210.749996" electricity_abs="0"/>
    </tripinfo>
    <tripinfo id="f_0_0.15" depart="62.00" departLane="A2B2_0" departPos="5.10" departSpeed="0.00" departDelay="0.00" arrival="227.00" arrivalLane="C2D2_0" arrivalPos="492.80" arrivalSpeed="15.37" duration="165.00" routeLength="1495.00" waitingTime="26.00" waitingCount="2" stopTime="0.00" timeLoss="69.31" rerouteNo="0" devices="tripinfo_f_0_0.15 emissions_f_0_0.15" vType="DEFAULT_VEHTYPE" speedFactor="1.13" vaporized="">
        <emissions CO_abs="10636.622629" CO2_abs="472843.660099" HC_abs="59.113397" PMx_abs="8.350843" NOx_abs="191.441147" fuel_abs="150817.625500" electricity_abs="0"/>
    </tripinfo>
    <tripinfo id="f_0_3.5" depart="95.00" departLane="C0C1_0" departPos="5.10" departSpeed="0.00" departDelay="6.00" arrival="228.00" arrivalLane="C2C3_0" arrivalPos="492.80" arrivalSpeed="11.24" duration="133.00" routeLength="1495.00" waitingTime="0.00" waitingCount="0" stopTime="0.00" timeLoss="10.04" rerouteNo="0" devices="tripinfo_f_0_3.5 emissions_f_0_3.5" vType="DEFAULT_VEHTYPE" speedFactor="0.88" vaporized="">
        <emissions CO_abs="3065.395930" CO2_abs="306181.305400" HC_abs="20.639665" PMx_abs="3.792948" NOx_abs="112.925769" fuel_abs="97658.691235" electricity_abs="0"/>
    </tripinfo>
    <tripinfo id="f_0_3.6" depart="98.00" departLane="C0C1_0" departPos="5.10" departSpeed="0.00" departDelay="3.00" arrival="230.00" arrivalLane="C2C3_0" arrivalPos="492.80" arrivalSpeed="13.70" duration="132.00" routeLength="1495.00" waitingTime="0.00" waitingCount="0" stopTime="0.00" timeLoss="25.46" rerouteNo="0" devices="tripinfo_f_0_3.6 emissions_f_0_3.6" vType="DEFAULT_VEHTYPE" speedFactor="1.02" vaporized="">
        <emissions CO_abs="3770.764432" CO2_abs="332712.095669" HC_abs="24.635287" PMx_abs="4.777699" NOx_abs="127.484251" fuel_abs="106120.372168" electricity_abs="0"/>
    </tripinfo>
    <tripinfo id="f_0_0.16" depart="71.00" departLane="A2B2_0" departPos="5.10" departSpeed="0.00" departDelay="0.00" arrival="233.00" arrivalLane="C2D2_0" arrivalPos="492.80" arrivalSpeed="13.25" duration="162.00" routeLength="1495.00" waitingTime="25.00" waitingCount="2" stopTime="0.00" timeLoss="54.02" rerouteNo="0" devices="tripinfo_f_0_0.16 emissions_f_0_0.16" vType="DEFAULT_VEHTYPE" speedFactor="1.01" vaporized="">
        <emissions CO_abs="9262.227304" CO2_abs="420793.984538" HC_abs="51.421464" PMx_abs="7.070928" NOx_abs="167.504010" fuel_abs="134216.218022" electricity_abs="0"/>
    </tripinfo>
    <tripinfo id="f_0_0.17" depart="74.00" departLane="A2B2_0" departPos="5.10" departSpeed="0.00" departDelay="2.00" arrival="234.00" arrivalLane="C2D2_0" arrivalPos="492.80" arrivalSpeed="15.79" duration="160.00" routeLength="1495.00" waitingTime="24.00" waitingCount="2" stopTime="0.00" timeLoss="67.80" rerouteNo="0" devices="tripinfo_f_0_0.17 emissions_f_0_0.17" vType="DEFAULT_VEHTYPE" speedFactor="1.17" vaporized="">
        <emissions CO_abs="9570.627158" CO2_abs="441417.583303" HC_abs="53.216149" PMx_abs="7.631914" NOx_abs="176.911316" fuel_abs="140793.964018" electricity_abs="0"/>
    </tripinfo>
    <tripinfo id="f_0_2.7" depart="92.00" departLane="E2D2_0" departPos="5.10" departSpeed="0.00" departDelay="0.00" arrival="237.00" arrivalLane="C2B2_0" arrivalPos="492.80" arrivalSpeed="11.22" duration="145.00" routeLength="1495.00" waitingTime="4.00" waitingCount="1" stopTime="0.00" timeLoss="18.68" rerouteNo="0" devices="tripinfo_f_0_2.7 emissions_f_0_2.7" vType="DEFAULT_VEHTYPE" speedFactor="0.85" vaporized="">
        <emissions CO_abs="4481.737967" CO2_abs="335950.654951" HC_abs="27.870603" PMx_abs="4.417028" NOx_abs="126.131837" fuel_abs="107154.233590" electricity_abs="0"/>
    </tripinfo>
    <tripinfo id="f_0_2.8" depart="97.00" departLane="E2D2_0" departPos="5.10" departSpeed="0.00" departDelay="0.00" arrival="239.00" arrivalLane="C2B2_0" arrivalPos="492.80" arrivalSpeed="13.51" duration="142.00" routeLength="1495.00" waitingTime="4.00" waitingCount="1" stopTime="0.00" timeLoss="33.11" rerouteNo="0" devices="tripinfo_f_0_2.8 emissions_f_0_2.8" vType="DEFAULT_VEHTYPE" speedFactor="1.00" vaporized="">
        <emissions CO_abs="5485.524101" CO2_abs="375362.469282" HC_abs="33.418176" PMx_abs="5.862431" NOx_abs="147.563410" fuel_abs="119724.119768" electricity_abs="0"/>
    </tripinfo>
    <tripinfo id="f_0_0.18" depart="81.00" departLane="A2B2_0" departPos="5.10" departSpeed="0.00" departDelay="0.00" arrival="241.00" arrivalLane="C2D2_0" arrivalPos="492.80" arrivalSpeed="11.78" duration="160.00" routeLength="1495.00" waitingTime="18.00" waitingCount="2" stopTime="0.00" timeLoss="40.38" rerouteNo="0" devices="tripinfo_f_0_0.18 emissions_f_0_0.18" vType="DEFAULT_VEHTYPE" speedFactor="0.90" vaporized="">