<?xml version="1.0" encoding="UTF-8"?>

<!-- generated on 2024-08-22 13:36:59 by Eclipse SUMO sumo Version 1.17.0
<configuration xmlns:xsi="http://www.w3.org/2001/XMLSchema-instance" xsi:noNamespaceSchemaLocation="http://sumo.dlr.de/xsd/sumoConfiguration.xsd">

    <input>
        <net-file value="single_neat.net.xml"/>
        <route-files value="single_3.rou.xml"/>
    </input>

    <output>
        <tripinfo-output value="emissions_test\z14_data_VehicleNumberAndHaltingNumber_stepThreshold_4000_gen_80_3emissionssingle.xml"/>
    </output>

    <processing>
        <time-to-teleport value="-1"/>
    </processing>

    <report>
        <no-warnings value="true"/>
    </report>

    <emissions>
        <device.emissions.probability value="1.0"/>
    </emissions>

    <traci_server>
        <remote-port value="58237"/>
    </traci_server>

</configuration>
-->

<tripinfos xmlns:xsi="http://www.w3.org/2001/XMLSchema-instance" xsi:noNamespaceSchemaLocation="http://sumo.dlr.de/xsd/tripinfo_file.xsd">
    <tripinfo id="f_0_0.0" depart="2.00" departLane="A2B2_0" departPos="5.10" departSpeed="0.00" departDelay="0.00" arrival="121.00" arrivalLane="C2D2_0" arrivalPos="492.80" arrivalSpeed="14.44" duration="119.00" routeLength="1495.00" waitingTime="4.00" waitingCount="1" stopTime="0.00" timeLoss="16.55" rerouteNo="0" devices="tripinfo_f_0_0.0 emissions_f_0_0.0" vType="DEFAULT_VEHTYPE" speedFactor="1.06" vaporized="">
        <emissions CO_abs="3853.027521" CO2_abs="334049.641234" HC_abs="24.241956" PMx_abs="4.813839" NOx_abs="125.060079" fuel_abs="106547.043322" electricity_abs="0"/>
    </tripinfo>
    <tripinfo id="f_0_0.1" depart="5.00" departLane="A2B2_0" departPos="5.10" departSpeed="0.00" departDelay="0.00" arrival="129.00" arrivalLane="C2D2_0" arrivalPos="492.80" arrivalSpeed="11.85" duration="124.00" routeLength="1495.00" waitingTime="0.00" waitingCount="0" stopTime="0.00" timeLoss="8.81" rerouteNo="0" devices="tripinfo_f_0_0.1 emissions_f_0_0.1" vType="DEFAULT_VEHTYPE" speedFactor="0.94" vaporized="">
        <emissions CO_abs="2498.556788" CO2_abs="288927.519992" HC_abs="17.214483" PMx_abs="3.473550" NOx_abs="104.387548" fuel_abs="92155.394729" electricity_abs="0"/>
    </tripinfo>
    <tripinfo id="f_0_0.2" depart="10.00" departLane="A2B2_0" departPos="5.10" departSpeed="0.00" departDelay="0.00" arrival="131.00" arrivalLane="C2D2_0" arrivalPos="492.80" arrivalSpeed="13.77" duration="121.00" routeLength="1495.00" waitingTime="0.00" waitingCount="0" stopTime="0.00" timeLoss="13.67" rerouteNo="0" devices="tripinfo_f_0_0.2 emissions_f_0_0.2" vType="DEFAULT_VEHTYPE" speedFactor="1.01" vaporized="">
        <emissions CO_abs="3463.693940" CO2_abs="333251.586493" HC_abs="23.100031" PMx_abs="4.940846" NOx_abs="127.595906" fuel_abs="106292.101859" electricity_abs="0"/>
    </tripinfo>
    <tripinfo id="f_0_0.3" depart="16.00" departLane="A2B2_0" departPos="5.10" departSpeed="0.00" departDelay="0.00" arrival="132.00" arrivalLane="C2D2_0" arrivalPos="492.80" arrivalSpeed="14.08" duration="116.00" routeLength="1495.00" waitingTime="0.00" waitingCount="0" stopTime="0.00" timeLoss="16.44" rerouteNo="0" devices="tripinfo_f_0_0.3 emissions_f_0_0.3" vType="DEFAULT_VEHTYPE" speedFactor="1.08" vaporized="">
        <emissions CO_abs="3495.104197" CO2_abs="337177.738009" HC_abs="23.207153" PMx_abs="5.168951" NOx_abs="129.820655" fuel_abs="107544.152820" electricity_abs="0"/>
    </tripinfo>
    <tripinfo id="f_0_1.0" depart="26.00" departLane="C4C3_0" departPos="5.10" departSpeed="0.00" departDelay="0.00" arrival="138.00" arrivalLane="C2C1_0" arrivalPos="492.80" arrivalSpeed="13.46" duration="112.00" routeLength="1495.00" waitingTime="0.00" waitingCount="0" stopTime="0.00" timeLoss="8.22" rerouteNo="0" devices="tripinfo_f_0_1.0 emissions_f_0_1.0" vType="DEFAULT_VEHTYPE" speedFactor="1.05" vaporized="">
        <emissions CO_abs="2436.057873" CO2_abs="289342.474119" HC_abs="17.039085" PMx_abs="3.880841" NOx_abs="106.265507" fuel_abs="92287.235939" electricity_abs="0"/>
    </tripinfo>
    <tripinfo id="f_0_0.4" depart="20.00" departLane="A2B2_0" departPos="5.10" departSpeed="0.00" departDelay="0.00" arrival="149.00" arrivalLane="C2D2_0" arrivalPos="492.80" arrivalSpeed="14.26" duration="129.00" routeLength="1495.00" waitingTime="11.00" waitingCount="1" stopTime="0.00" timeLoss="24.30" rerouteNo="0" devices="tripinfo_f_0_0.4 emissions_f_0_0.4" vType="DEFAULT_VEHTYPE" speedFactor="1.03" vaporized="">
        <emissions CO_abs="4967.270104" CO2_abs="349888.743149" HC_abs="29.776170" PMx_abs="5.054288" NOx_abs="131.809961" fuel_abs="111599.588806" electricity_abs="0"/>
    </tripinfo>
    <tripinfo id="f_0_2.0" depart="40.00" departLane="E2D2_0" departPos="5.10" departSpeed="0.00" departDelay="0.00" arrival="158.00" arrivalLane="C2B2_0" arrivalPos="492.80" arrivalSpeed="13.76" duration="118.00" routeLength="1495.00" waitingTime="0.00" waitingCount="0" stopTime="0.00" timeLoss="8.45" rerouteNo="0" devices="tripinfo_f_0_2.0 emissions_f_0_2.0" vType="DEFAULT_VEHTYPE" speedFactor="0.99" vaporized="">
        <emissions CO_abs="2345.788876" CO2_abs="287603.668688" HC_abs="16.591301" PMx_abs="3.598393" NOx_abs="104.518122" fuel_abs="91732.887045" electricity_abs="0"/>
    </tripinfo>
    <tripinfo id="f_0_0.5" depart="25.00" departLane="A2B2_0" departPos="5.10" departSpeed="0.00" departDelay="0.00" arrival="165.00" arrivalLane="C2D2_0" arrivalPos="492.80" arrivalSpeed="10.76" duration="140.00" routeLength="1495.00" waitingTime="0.00" waitingCount="0" stopTime="0.00" timeLoss="10.28" rerouteNo="0" devices="tripinfo_f_0_0.5 emissions_f_0_0.5" vType="DEFAULT_VEHTYPE" speedFactor="0.83" vaporized="">
        <emissions CO_abs="3349.848086" CO2_abs="303627.794646" HC_abs="22.085392" PMx_abs="3.688582" NOx_abs="112.226012" fuel_abs="96844.477570" electricity_abs="0"/>
    </tripinfo>
    <tripinfo id="f_0_0.6" depart="29.00" departLane="A2B2_0" departPos="5.10" departSpeed="0.00" departDelay="0.00" arrival="167.00" arrivalLane="C2D2_0" arrivalPos="492.80" arrivalSpeed="12.73" duration="138.00" routeLength="1495.00" waitingTime="0.00" waitingCount="0" stopTime="0.00" timeLoss="22.76" rerouteNo="0" devices="tripinfo_f_0_0.6 emissions_f_0_0.6" vType="DEFAULT_VEHTYPE" speedFactor="0.94" vaporized="">
        <emissions CO_abs="4349.686236" CO2_abs="347462.914834" HC_abs="27.713970" PMx_abs="5.189222" NOx_abs="135.113711" fuel_abs="110825.214238" electricity_abs="0"/>
    </tripinfo>
    <tripinfo id="f_0_1.1" depart="29.00" departLane="C4C3_0" departPos="5.10" departSpeed="0.00" departDelay="2.00" arrival="169.00" arrivalLane="C2C1_0" arrivalPos="492.80" arrivalSpeed="11.10" duration="140.00" routeLength="1495.00" waitingTime="5.00" waitingCount="1" stopTime="0.00" timeLoss="18.44" rerouteNo="0" devices="tripinfo_f_0_1.1 emissions_f_0_1.1" vType="DEFAULT_VEHTYPE" speedFactor="0.89" vaporized="">
        <emissions CO_abs="4373.531058" CO2_abs="328244.736711" HC_abs="27.254256" PMx_abs="4.575451" NOx_abs="124.849535" fuel_abs="104696.057609" electricity_abs="0"/>
    </tripinfo>
    <tripinfo id="f_0_1.2" depart="32.00" departLane="C4C3_0" departPos="5.10" departSpeed="0.00" departDelay="3.00" arrival="173.00" arrivalLane="C2C1_0" arrivalPos="492.80" arrivalSpeed="11.48" duration="141.00" routeLength="1495.00" waitingTime="0.00" waitingCount="0" stopTime="0.00" timeLoss="14.81" rerouteNo="0" devices="tripinfo_f_0_1.2 emissions_f_0_1.2" vType="DEFAULT_VEHTYPE" speedFactor="0.86" vaporized="">
        <emissions CO_abs="3791.766070" CO2_abs="324031.424035" HC_abs="24.475060" PMx_abs="4.175850" NOx_abs="121.138994" fuel_abs="103352.245935" electricity_abs="0"/>
    </tripinfo>
    <tripinfo id="f_0_1.3" depart="42.00" departLane="C4C3_0" departPos="5.10" departSpeed="0.00" departDelay="0.00" arrival="175.00" arrivalLane="C2C1_0" arrivalPos="492.80" arrivalSpeed="11.32" duration="133.00" routeLength="1495.00" waitingTime="0.00" waitingCount="0" stopTime="0.00" timeLoss="9.71" rerouteNo="0" devices="tripinfo_f_0_1.3 emissions_f_0_1.3" vType="DEFAULT_VEHTYPE" speedFactor="0.88" vaporized="">
        <emissions CO_abs="3101.804784" CO2_abs="295964.296744" HC_abs="20.677931" PMx_abs="3.880243" NOx_abs="110.727383" fuel_abs="94399.743617" electricity_abs="0"/>
    </tripinfo>
    <tripinfo id="f_0_0.7" depart="32.00" departLane="A2B2_0" departPos="5.10" departSpeed="0.00" departDelay="0.00" arrival="176.00" arrivalLane="C2D2_0" arrivalPos="492.80" arrivalSpeed="14.49" duration="144.00" routeLength="1495.00" waitingTime="14.00" waitingCount="1" stopTime="0.00" timeLoss="44.39" rerouteNo="0" devices="tripinfo_f_0_0.7 emissions_f_0_0.7" vType="DEFAULT_VEHTYPE" speedFactor="1.09" vaporized="">
        <emissions CO_abs="7012.786576" CO2_abs="394847.683375" HC_abs="40.967061" PMx_abs="6.864388" NOx_abs="159.469527" fuel_abs="125939.044712" electricity_abs="0"/>
    </tripinfo>
    <tripinfo id="f_0_1.4" depart="45.00" departLane="C4C3_0" departPos="5.10" departSpeed="0.00" departDelay="0.00" arrival="176.00" arrivalLane="C2C1_0" arrivalPos="492.80" arrivalSpeed="13.87" duration="131.00" routeLength="1495.00" waitingTime="0.00" waitingCount="0" stopTime="0.00" timeLoss="25.11" rerouteNo="0" devices="tripinfo_f_0_1.4 emissions_f_0_1.4" vType="DEFAULT_VEHTYPE" speedFactor="1.02" vaporized="">
        <emissions CO_abs="4054.613214" CO2_abs="340872.183641" HC_abs="26.220174" PMx_abs="5.222473" NOx_abs="133.144858" fuel_abs="108722.792648" electricity_abs="0"/>
    </tripinfo>
    <tripinfo id="f_0_0.8" depart="35.00" departLane="A2B2_0" departPos="5.10" departSpeed="0.00" departDelay="1.00" arrival="179.00" arrivalLane="C2D2_0" arrivalPos="492.80" arrivalSpeed="13.77" duration="144.00" routeLength="1495.00" waitingTime="12.00" waitingCount="1" stopTime="0.00" timeLoss="39.11" rerouteNo="0" devices="tripinfo_f_0_0.8 emissions_f_0_0.8" vType="DEFAULT_VEHTYPE" speedFactor="1.03" vaporized="">
        <emissions CO_abs="6879.846888" CO2_abs="404559.525136" HC_abs="40.508425" PMx_abs="6.741174" NOx_abs="161.399316" fuel_abs="129036.845670" electricity_abs="0"/>
    </tripinfo>
    <tripinfo id="f_0_0.9" depart="39.00" departLane="A2B2_0" departPos="5.10" departSpeed="0.00" departDelay="0.00" arrival="181.00" arrivalLane="C2D2_0" arrivalPos="492.80" arrivalSpeed="14.38" duration="142.00" routeLength="1495.00" waitingTime="11.00" waitingCount="1" stopTime="0.00" timeLoss="38.86" rerouteNo="0" devices="tripinfo_f_0_0.9 emissions_f_0_0.9" vType="DEFAULT_VEHTYPE" speedFactor="1.05" vaporized="">
        <emissions CO_abs="7126.505327" CO2_abs="414583.012727" HC_abs="41.794613" PMx_abs="7.051371" NOx_abs="166.161430" fuel_abs="132233.773699" electricity_abs="0"/>
    </tripinfo>
    <tripinfo id="f_0_2.1" depart="43.00" departLane="E2D2_0" departPos="5.10" departSpeed="0.00" departDelay="1.00" arrival="181.00" arrivalLane="C2B2_0" arrivalPos="492.80" arrivalSpeed="11.82" duration="138.00" routeLength="1495.00" waitingTime="10.00" waitingCount="1" stopTime="0.00" timeLoss="23.42" rerouteNo="0" devices="tripinfo_f_0_2.1 emissions_f_0_2.1" vType="DEFAULT_VEHTYPE" speedFactor="0.94" vaporized="">
        <emissions CO_abs="4887.097153" CO2_abs="342104.743616" HC_abs="29.384278" PMx_abs="4.754970" NOx_abs="128.837688" fuel_abs="109117.049773" electricity_abs="0"/>
    </tripinfo>
    <tripinfo id="f_0_0.10" depart="42.00" departLane="A2B2_0" departPos="5.10" departSpeed="0.00" departDelay="2.00" arrival="183.00" arrivalLane="C2D2_0" arrivalPos="492.80" arrivalSpeed="15.17" duration="141.00" routeLength="1495.00" waitingTime="15.00" waitingCount="2" stopTime="0.00" timeLoss="44.43" rerouteNo="0" devices="tripinfo_f_0_0.10 emissions_f_0_0.10" vType="DEFAULT_VEHTYPE" speedFactor="1.12" vaporized="">
        <emissions CO_abs="7590.751891" CO2_abs="424925.098925" HC_abs="43.774191" PMx_abs="7.344452" NOx_abs="169.936698" fuel_abs="135532.500499" electricity_abs="0"/>
    </tripinfo>
    <tripinfo id="f_0_2.2" depart="46.00" departLane="E2D2_0" departPos="5.10" departSpeed="0.00" departDelay="1.00" arrival="183.00" arrivalLane="C2B2_0" arrivalPos="492.80" arrivalSpeed="13.95" duration="137.00" routeLength="1495.00" waitingTime="8.00" waitingCount="1" stopTime="0.00" timeLoss="29.79" rerouteNo="0" devices="tripinfo_f_0_2.2 emissions_f_0_2.2" vType="DEFAULT_VEHTYPE" speedFactor="1.01" vaporized="">
        <emissions CO_abs="5529.085251" CO2_abs="368601.982346" HC_abs="33.395857" PMx_abs="5.813843" NOx_abs="144.278166" fuel_abs="117567.904513" electricity_abs="0"/>
    </tripinfo>
    <tripinfo id="f_0_2.3" depart="50.00" departLane="E2D2_0" departPos="5.10" departSpeed="0.00" departDelay="0.00" arrival="185.00" arrivalLane="C2B2_0" arrivalPos="492.80" arrivalSpeed="13.12" duration="135.00" routeLength="1495.00" waitingTime="6.00" waitingCount="1" stopTime="0.00" timeLoss="23.80" rerouteNo="0" devices="tripinfo_f_0_2.3 emissions_f_0_2.3" vType="DEFAULT_VEHTYPE" speedFactor="0.97" vaporized="">
        <emissions CO_abs="4908.469405" CO2_abs="347462.523194" HC_abs="29.982373" PMx_abs="5.176348" NOx_abs="133.476970" fuel_abs="110825.522484" electricity_abs="0"/>
    </tripinfo>
    <tripinfo id="f_0_3.0" depart="80.00" departLane="C0C1_0" departPos="5.10" departSpeed="0.00" departDelay="0.00" arrival="187.00" arrivalLane="C2C3_0" arrivalPos="492.80" arrivalSpeed="14.35" duration="107.00" routeLength="1495.00" waitingTime="0.00" waitingCount="0" stopTime="0.00" timeLoss="8.87" rerouteNo="0" devices="tripinfo_f_0_3.0 emissions_f_0_3.0" vType="DEFAULT_VEHTYPE" speedFactor="1.10" vaporized="">
        <emissions CO_abs="2485.844868" CO2_abs="296913.379674" HC_abs="17.253137" PMx_abs="4.093034" NOx_abs="109.119487" fuel_abs="94701.882064" electricity_abs="0"/>
    </tripinfo>
    <tripinfo id="f_0_0.11" depart="45.00" departLane="A2B2_0" departPos="5.10" departSpeed="0.00" departDelay="4.00" arrival="189.00" arrivalLane="C2D2_0" arrivalPos="492.80" arrivalSpeed="11.92" duration="144.00" routeLength="1495.00" waitingTime="6.00" waitingCount="1" stopTime="0.00" timeLoss="27.49" rerouteNo="0" devices="tripinfo_f_0_0.11 emissions_f_0_0.11" vType="DEFAULT_VEHTYPE" speedFactor="0.93" vaporized="">
        <emissions CO_abs="6046.956752" CO2_abs="379727.959532" HC_abs="35.925733" PMx_abs="5.794120" NOx_abs="147.590441" fuel_abs="121117.037715" electricity_abs="0"/>
    </tripinfo>
    <tripinfo id="f_0_2.4" depart="65.00" departLane="E2D2_0" departPos="5.10" departSpeed="0.00" departDelay="0.00" arrival="190.00" arrivalLane="C2B2_0" arrivalPos="492.80" arrivalSpeed="11.69" duration="125.00" routeLength="1495.00" waitingTime="0.00" waitingCount="0" stopTime="0.00" timeLoss="8.58" rerouteNo="0" devices="tripinfo_f_0_2.4 emissions_f_0_2.4" vType="DEFAULT_VEHTYPE" speedFactor="0.93" vaporized="">
        <emissions CO_abs="2676.749869" CO2_abs="288293.345780" HC_abs="18.336207" PMx_abs="3.695279" NOx_abs="106.338500" fuel_abs="91952.953505" electricity_abs="0"/>
    </tripinfo>
    <tripinfo id="f_0_3.1" depart="83.00" departLane="C0C1_0" departPos="5.10" departSpeed="0.00" departDelay="2.00" arrival="195.00" arrivalLane="C2C3_0" arrivalPos="492.80" arrivalSpeed="13.08" duration="112.00" routeLength="1495.00" waitingTime="0.00" waitingCount="0" stopTime="0.00" timeLoss="7.08" rerouteNo="0" devices="tripinfo_f_0_3.1 emissions_f_0_3.1" vType="DEFAULT_VEHTYPE" speedFactor="1.03" vaporized="">
        <emissions CO_abs="2279.642738" CO2_abs="284831.416701" HC_abs="16.073403" PMx_abs="3.708201" NOx_abs="103.759775" fuel_abs="90848.465237" electricity_abs="0"/>
    </tripinfo>
    <tripinfo id="f_0_1.5" depart="51.00" departLane="C4C3_0" departPos="5.10" departSpeed="0.00" departDelay="0.00" arrival="198.00" arrivalLane="C2C1_0" arrivalPos="492.80" arrivalSpeed="12.00" duration="147.00" routeLength="1495.00" waitingTime="10.00" waitingCount="1" stopTime="0.00" timeLoss="25.15" rerouteNo="0" devices="tripinfo_f_0_1.5 emissions_f_0_1.5" vType="DEFAULT_VEHTYPE" speedFactor="0.89" vaporized="">
        <emissions CO_abs="5470.945218" CO2_abs="356580.531817" HC_abs="32.868142" PMx_abs="5.085592" NOx_abs="136.400673" fuel_abs="113734.292118" electricity_abs="0"/>
    </tripinfo>
    <tripinfo id="f_0_3.2" depart="86.00" departLane="C0C1_0" departPos="5.10" departSpeed="0.00" departDelay="1.00" arrival="198.00" arrivalLane="C2C3_0" arrivalPos="492.80" arrivalSpeed="13.48" duration="112.00" routeLength="1495.00" waitingTime="0.00" waitingCount="0" stopTime="0.00" timeLoss="7.93" rerouteNo="0" devices="tripinfo_f_0_3.2 emissions_f_0_3.2" vType="DEFAULT_VEHTYPE" speedFactor="1.04" vaporized="">
        <emissions CO_abs="2281.016303" CO2_abs="286197.818288" HC_abs="16.050056" PMx_abs="3.637693" NOx_abs="103.359859" fuel_abs="91284.379595" electricity_abs="0"/>
    </tripinfo>
    <tripinfo id="f_0_2.5" depart="68.00" departLane="E2D2_0" departPos="5.10" departSpeed="0.00" departDelay="1.00" arrival="201.00" arrivalLane="C2B2_0" arrivalPos="492.80" arrivalSpeed="15.74" duration="133.00" routeLength="1495.00" waitingTime="12.00" waitingCount="1" stopTime="0.00" timeLoss="41.55" rerouteNo="0" devices="tripinfo_f_0_2.5 emissions_f_0_2.5" vType="DEFAULT_VEHTYPE" speedFactor="1.18" vaporized="">
        <emissions CO_abs="6271.958389" CO2_abs="389110.661406" HC_abs="37.006965" PMx_abs="6.332782" NOx_abs="152.359617" fuel_abs="124109.334471" electricity_abs="0"/>
    </tripinfo>
    <tripinfo id="f_0_1.6" depart="56.00" departLane="C4C3_0" departPos="5.10" departSpeed="0.00" departDelay="0.00" arrival="204.00" arrivalLane="C2C1_0" arrivalPos="492.80" arrivalSpeed="10.80" duration="148.00" routeLength="1495.00" waitingTime="3.00" waitingCount="1" stopTime="0.00" timeLoss="17.44" rerouteNo="0" devices="tripinfo_f_0_1.6 emissions_f_0_1.6" vType="DEFAULT_VEHTYPE" speedFactor="0.83" vaporized="">
        <emissions CO_abs="4674.792044" CO2_abs="332658.605409" HC_abs="28.833490" PMx_abs="4.478444" NOx_abs="126.275168" fuel_abs="106104.188840" electricity_abs="0"/>
    </tripinfo>
    <tripinfo id="f_0_1.7" depart="59.00" departLane="C4C3_0" departPos="5.10" departSpeed="0.00" departDelay="1.00" arrival="206.00" arrivalLane="C2C1_0" arrivalPos="492.80" arrivalSpeed="11.10" duration="147.00" routeLength="1495.00" waitingTime="2.00" waitingCount="1" stopTime="0.00" timeLoss="23.32" rerouteNo="0" devices="tripinfo_f_0_1.7 emissions_f_0_1.7" vType="DEFAULT_VEHTYPE" speedFactor="0.87" vaporized="">
        <emissions CO_abs="5314.633629" CO2_abs="375854.141583" HC_abs="32.750927" PMx_abs="5.511929" NOx_abs="145.673954" fuel_abs="119881.253874" electricity_abs="0"/>
    </tripinfo>
    <tripinfo id="f_0_1.8" depart="62.00" departLane="C4C3_0" departPos="5.10" departSpeed="0.00" departDelay="2.00" arrival="208.00" arrivalLane="C2C1_0" arrivalPos="492.80" arrivalSpeed="12.34" duration="146.00" routeLength="1495.00" waitingTime="1.00" waitingCount="1" stopTime="0.00" timeLoss="31.90" rerouteNo="0" devices="tripinfo_f_0_1.8 emissions_f_0_1.8" vType="DEFAULT_VEHTYPE" speedFactor="0.95" vaporized="">
        <emissions CO_abs="5810.171466" CO2_abs="391430.308777" HC_abs="35.509061" PMx_abs="6.355834" NOx_abs="156.048549" fuel_abs="124848.821814" electricity_abs="0"/>
    </tripinfo>
    <tripinfo id="f_0_0.12" depart="48.00" departLane="A2B2_0" departPos="5.10" departSpeed="0.00" departDelay="4.00" arrival="209.00" arrivalLane="C2D2_0" arrivalPos="492.80" arrivalSpeed="12.46" duration="161.00" routeLength="1495.00" waitingTime="19.00" waitingCount="2" stopTime="0.00" timeLoss="45.74" rerouteNo="0" devices="tripinfo_f_0_0.12 emissions_f_0_0.12" vType="DEFAULT_VEHTYPE" speedFactor="0.94" vaporized="">
        <emissions CO_abs="8390.825369" CO2_abs="413873.537623" HC_abs="47.530133" PMx_abs="6.834820" NOx_abs="164.916821" fuel_abs="132008.535710" electricity_abs="0"/>
    </tripinfo>
    <tripinfo id="f_0_1.9" depart="69.00" departLane="C4C3_0" departPos="5.10" departSpeed="0.00" departDelay="0.00" arrival="209.00" arrivalLane="C2C1_0" arrivalPos="492.80" arrivalSpeed="15.37" duration="140.00" routeLength="1495.00" waitingTime="0.00" waitingCount="0" stopTime="0.00" timeLoss="46.60" rerouteNo="0" devices="tripinfo_f_0_1.9 emissions_f_0_1.9" vType="DEFAULT_VEHTYPE" speedFactor="1.15" vaporized="">
        <emissions CO_abs="6263.739689" CO2_abs="422734.391104" HC_abs="38.192314" PMx_abs="7.179034" NOx_abs="170.386346" fuel_abs="134833.028517" electricity_abs="0"/>
    </tripinfo>
    <tripinfo id="f_0_2.6" depart="79.00" departLane="E2D2_0" departPos="5.10" departSpeed="0.00" departDelay="0.00" arrival="210.00" arrivalLane="C2B2_0" arrivalPos="492.80" arrivalSpeed="12.27" duration="131.00" routeLength="1495.00" waitingTime="6.00" waitingCount="1" stopTime="0.00" timeLoss="19.86" rerouteNo="0" devices="tripinfo_f_0_2.6 emissions_f_0_2.6" vType="DEFAULT_VEHTYPE" speedFactor="0.97" vaporized="">
        <emissions CO_abs="4312.065876" CO2_abs="337592.234510" HC_abs="26.498652" PMx_abs="4.590877" NOx_abs="126.047738" fuel_abs="107677.526864" electricity_abs="0"/>
    </tripinfo>
    <tripinfo id="f_0_0.13" depart="51.00" departLane="A2B2_0" departPos="5.10" departSpeed="0.00" departDelay="6.00" arrival="211.00" arrivalLane="C2D2_0" arrivalPos="492.80" arrivalSpeed="15.31" duration="160.00" routeLength="1495.00" waitingTime="19.00" waitingCount="2" stopTime="0.00" timeLoss="66.33" rerouteNo="0" devices="tripinfo_f_0_0.13 emissions_f_0_0.13" vType="DEFAULT_VEHTYPE" speedFactor="1.16" vaporized="">
        <emissions CO_abs="8963.499765" CO2_abs="442915.441620" HC_abs="50.909658" PMx_abs="7.782083" NOx_abs="179.695174" fuel_abs="141271.152675" electricity_abs="0"/>
    </tripinfo>
    <tripinfo id="f_0_0.14" depart="59.00" departLane="A2B2_0" departPos="5.10" departSpeed="0.00" departDelay="0.00" arrival="214.00" arrivalLane="C2D2_0" arrivalPos="492.80" arrivalSpeed="12.59" duration="155.00" routeLength="1495.00" waitingTime="18.00" waitingCount="2" stopTime="0.00" timeLoss="36.74" rerouteNo="0" devices="tripinfo_f_0_0.14 emissions_f_0_0.14" vType="DEFAULT_VEHTYPE" speedFactor="0.92" vaporized="">
        <emissions CO_abs="7083.752563" CO2_abs="391222.087933" HC_abs="40.779815" PMx_abs="5.742388" NOx_abs="150.298001" fuel_abs="124784.003652" electricity_abs="0"/>
    </tripinfo>
    <tripinfo id="f_0_0.15" depart="62.00" departLane="A2B2_0" departPos="5.10" departSpeed="0.00" departDelay="0.00" arrival="215.00" arrivalLane="C2D2_0" arrivalPos="492.80" arrivalSpeed="13.88" duration="153.00" routeLength="1495.00" waitingTime="16.00" waitingCount="2" stopTime="0.00" timeLoss="57.67" rerouteNo="0" devices="tripinfo_f_0_0.15 emissions_f_0_0.15" vType="DEFAULT_VEHTYPE" speedFactor="1.13" vaporized="">
        <emissions CO_abs="7980.688825" CO2_abs="418945.893388" HC_abs="45.819457" PMx_abs="7.099342" NOx_abs="168.207521" fuel_abs="133625.869373" electricity_abs="0"/>
    </tripinfo>
    <tripinfo id="f_0_0.16" depart="71.00" departLane="A2B2_0" departPos="5.10" departSpeed="0.00" departDelay="0.00" arrival="217.00" arrivalLane="C2D2_0" arrivalPos="492.80" arrivalSpeed="13.15" duration="146.00" routeLength="1495.00" waitingTime="12.00" waitingCount="1" stopTime="0.00" timeLoss="38.37" rerouteNo="0" devices="tripinfo_f_0_0.16 emissions_f_0_0.16" vType="DEFAULT_VEHTYPE" speedFactor="1.01" vaporized="">
        <emissions CO_abs="7261.319797" CO2_abs="410523.342579" HC_abs="42.165062" PMx_abs="6.691819" NOx_abs="161.867711" fuel_abs="130939.435238" electricity_abs="0"/>
    </tripinfo>
    <tripinfo id="f_0_3.3" depart="89.00" departLane="C0C1_0" departPos="5.10" departSpeed="0.00" departDelay="3.00" arrival="219.00" arrivalLane="C2C3_0" arrivalPos="492.80" arrivalSpeed="14.20" duration="130.00" routeLength="1495.00" waitingTime="12.00" waitingCount="1" stopTime="0.00" timeLoss="26.79" rerouteNo="0" devices="tripinfo_f_0_3.3 emissions_f_0_3.3" vType="DEFAULT_VEHTYPE" speedFactor="1.04" vaporized="">
        <emissions CO_abs="5244.274816" CO2_abs="353677.102858" HC_abs="31.103759" PMx_abs="5.224864" NOx_abs="134.189384" fuel_abs="112807.880556" electricity_abs="0"/>
    </tripinfo>
    <tripinfo id="f_0_1.10" depart="73.00" departLane="C4C3_0" departPos="5.10" departSpeed="0.00" departDelay="0.00" arrival="221.00" arrivalLane="C2C1_0" arrivalPos="492.80" arrivalSpeed="13.49" duration="148.00" routeLength="1495.00" waitingTime="12.00" waitingCount="1" stopTime="0.00" timeLoss="39.62" rerouteNo="0" devices="tripinfo_f_0_1.10 emissions_f_0_1.10" vType="DEFAULT_VEHTYPE" speedFactor="0.99" vaporized="">
        <emissions CO_abs="7905.302419" CO2_abs="444569.920548" HC_abs="46.121225" PMx_abs="7.736033" NOx_abs="179.987165" fuel_abs="141798.228897" electricity_abs="0"/>
    </tripinfo>
    <tripinfo id="f_0_1.11" depart="77.00" departLane="C4C3_0" departPos="5.10" departSpeed="0.00" departDelay="0.00" arrival="223.00" arrivalLane="C2C1_0" arrivalPos="492.80" arrivalSpeed="13.76" duration="146.00" routeLength="1495.00" waitingTime="12.00" waitingCount="1" stopTime="0.00" timeLoss="39.94" rerouteNo="0" devices="tripinfo_f_0_1.11 emissions_f_0_1.11" vType="DEFAULT_VEHTYPE" speedFactor="1.02" vaporized="">
        <emissions CO_abs="7668.273993" CO2_abs="440825.735070" HC_abs="44.955144" PMx_abs="7.696300" NOx_abs="178.483333" fuel_abs="140603.864479" electricity_abs="0"/>
    </tripinfo>
    <tripinfo id="f_0_3.4" depart="92.00" departLane="C0C1_0" departPos="5.10" departSpeed="0.00" departDelay="5.00" arrival="223.00" arrivalLane="C2C3_0" arrivalPos="492.80" arrivalSpeed="13.40" duration="131.00" routeLength="1495.00" waitingTime="8.00" waitingCount="1" stopTime="0.00" timeLoss="22.28" rerouteNo="0" devices="tripinfo_f_0_3.4 emissions_f_0_3.4" vType="DEFAULT_VEHTYPE" speedFactor="1.00" vaporized="">
        <emissions CO_abs="4659.766555" CO2_abs="342252.225253" HC_abs="28.256975" PMx_abs="4.852242" NOx_abs="128.574763" fuel_abs="109163.842523" electricity_abs="0"/>
    </tripinfo>
    <tripinfo id="f_0_1.12" depart="80.00" departLane="C4C3_0" departPos="5.10" departSpeed="0.00" departDelay="0.00" arrival="225.00" arrivalLane="C2C1_0" arrivalPos="492.80" arrivalSpeed="15.81" duration="145.00" routeLength="1495.00" waitingTime="11.00" waitingCount="1" stopTime="0.00" timeLoss="52.95" rerouteNo="0" devices="tripinfo_f_0_1.12 emissions_f_0_1.12" vType="DEFAULT_VEHTYPE" speedFactor="1.18" vaporized="">
        <emissions CO_abs="7972.676109" CO2_abs="464440.792262" HC_abs="46.853300" PMx_abs="8.213809" NOx_abs="188.267729" fuel_abs="148135.842175" electricity_abs="0"/>
    </tripinfo>
    <tripinfo id="f_0_1.13" depart="83.00" departLane="C4C3_0" departPos="5.10" departSpeed="0.00" departDelay="0.00" arrival="229.00" arrivalLane="C2C1_0" arrivalPos="492.80" arrivalSpeed="12.16" duration="146.00" routeLength="1495.00" waitingTime="9.00" waitingCount="1" stopTime="0.00" timeLoss="32.93" rerouteNo="0" devices="tripinfo_f_0_1.13 emissions_f_0_1.13" vType="DEFAULT_VEHTYPE" speedFactor="0.96" vaporized="">
        <emissions CO_abs="6175.335310" CO2_abs="377709.244999" HC_abs="36.576930" PMx_abs="5.962254" NOx_abs="148.313277" fuel_abs="120473.017660" electricity_abs="0"/>
    </tripinfo>
    <tripinfo id="f_0_0.17" depart="74.00" departLane="A2B2_0" departPos="5.10" departSpeed="0.00" departDelay="2.00" arrival="230.00" arrivalLane="C2D2_0" arrivalPos="492.80" arrivalSpeed="15.39" duration="156.00" routeLength="1495.00" waitingTime="25.00" waitingCount="2" stopTime="0.00" timeLoss="63.25" rerouteNo="0" devices="tripinfo_f_0_0.17 emissions_f_0_0.17" vType="DEFAULT_VEHTYPE" speedFactor="1.17" vaporized="">
        <emissions CO_abs="10032.418332" CO2_abs="457666.649110" HC_abs="55.651423" PMx_abs="8.107335" NOx_abs="184.216767" fuel_abs="145976.604349" electricity_abs="0"/>
    </tripinfo>
    <tripinfo id="f_0_1.14" depart="86.00" departLane="C4C3_0" departPos="5.10" departSpeed="0.00" departDelay="1.00" arrival="230.00" arrivalLane="C2C1_0" arrivalPos="492.80" arrivalSpeed="13.91" duration="144.00" routeLength="1495.00" waitingTime="8.00" waitingCount="1" stopTime="0.00" timeLoss="45.37" rerouteNo="0" devices="tripinfo_f_0_1.14 emissions_f_0_1.14" vType="DEFAULT_VEHTYPE" speedFactor="1.09" vaporized="">
        <emissions CO_abs="7065.364147" CO2_abs="422679.476186" HC_abs="41.765266" PMx_abs="7.068418" NOx_abs="168.794280" fuel_abs="134816.221359" electricity_abs="0"/>
    </tripinfo>
    <tripinfo id="f_0_3.5" depart="95.00" departLane="C0C1_0" departPos="5.10" departSpeed="0.00" departDelay="6.00" arrival="230.00" arrivalLane="C2C3_0" arrivalPos="492.80" arrivalSpeed="11.76" duration="135.00" routeLength="1495.00" waitingTime="0.00" waitingCount="0" stopTime="0.00" timeLoss="11.79" rerouteNo="0" devices="tripinfo_f_0_3.5 emissions_f_0_3.5" vType="DEFAULT_VEHTYPE" speedFactor="0.88" vaporized="">
        <emissions CO_abs="3351.028389" CO2_abs="319420.429457" HC_abs="22.264839" PMx_abs="4.043350" NOx_abs="118.474075" fuel_abs="101881.402106" electricity_abs="0"/>
    </tripinfo>
    <tripinfo id="f_0_3.6" depart="98.00" departLane="C0C1_0" departPos="5.10" departSpeed="0.00" departDelay="3.00" arrival="232.00" arrivalLane="C2C3_0" arrivalPos="492.80" arrivalSpeed="12.88" duration="134.00" routeLength="1495.00" waitingTime="0.00" waitingCount="0" stopTime="0.00" timeLoss="27.35" rerouteNo="0" devices="tripinfo_f_0_3.6 emissions_f_0_3.6" vType="DEFAULT_VEHTYPE" speedFactor="1.02" vaporized="">
        <emissions CO_abs="4040.112098" CO2_abs="341623.707297" HC_abs="25.964943" PMx_abs="4.985172" NOx_abs="131.342774" fuel_abs="108962.805007" electricity_abs="0"/>
    </tripinfo>