<?xml version="1.0" encoding="UTF-8"?>

<!-- generated on 2024-08-22 12:40:29 by Eclipse SUMO sumo Version 1.17.0
<configuration xmlns:xsi="http://www.w3.org/2001/XMLSchema-instance" xsi:noNamespaceSchemaLocation="http://sumo.dlr.de/xsd/sumoConfiguration.xsd">

    <input>
        <net-file value="single_actuated.net.xml"/>
        <route-files value="single_3.rou.xml"/>
    </input>

    <output>
        <tripinfo-output value="emissions_test\z_actuated_3_emissions_tripinfo_single.xml"/>
    </output>

    <processing>
        <time-to-teleport value="-1"/>
    </processing>

    <emissions>
        <device.emissions.probability value="1.0"/>
    </emissions>

    <traci_server>
        <remote-port value="57288"/>
    </traci_server>

</configuration>
-->

<tripinfos xmlns:xsi="http://www.w3.org/2001/XMLSchema-instance" xsi:noNamespaceSchemaLocation="http://sumo.dlr.de/xsd/tripinfo_file.xsd">
    <tripinfo id="f_0_0.0" depart="2.00" departLane="A2B2_0" departPos="5.10" departSpeed="0.00" departDelay="0.00" arrival="111.00" arrivalLane="C2D2_0" arrivalPos="492.80" arrivalSpeed="13.87" duration="109.00" routeLength="1495.00" waitingTime="0.00" waitingCount="0" stopTime="0.00" timeLoss="6.58" rerouteNo="0" devices="tripinfo_f_0_0.0 emissions_f_0_0.0" vType="DEFAULT_VEHTYPE" speedFactor="1.06" vaporized="">
        <emissions CO_abs="2135.358517" CO2_abs="285577.956603" HC_abs="15.337385" PMx_abs="3.692473" NOx_abs="103.307445" fuel_abs="91086.525107" electricity_abs="0"/>
    </tripinfo>
    <tripinfo id="f_0_0.1" depart="5.00" departLane="A2B2_0" departPos="5.10" departSpeed="0.00" departDelay="0.00" arrival="129.00" arrivalLane="C2D2_0" arrivalPos="492.80" arrivalSpeed="12.39" duration="124.00" routeLength="1495.00" waitingTime="0.00" waitingCount="0" stopTime="0.00" timeLoss="9.07" rerouteNo="0" devices="tripinfo_f_0_0.1 emissions_f_0_0.1" vType="DEFAULT_VEHTYPE" speedFactor="0.94" vaporized="">
        <emissions CO_abs="2429.477881" CO2_abs="295172.410349" HC_abs="17.054985" PMx_abs="3.404777" NOx_abs="105.594874" fuel_abs="94147.339911" electricity_abs="0"/>
    </tripinfo>
    <tripinfo id="f_0_0.2" depart="10.00" departLane="A2B2_0" departPos="5.10" departSpeed="0.00" departDelay="0.00" arrival="131.00" arrivalLane="C2D2_0" arrivalPos="492.80" arrivalSpeed="13.41" duration="121.00" routeLength="1495.00" waitingTime="0.00" waitingCount="0" stopTime="0.00" timeLoss="13.87" rerouteNo="0" devices="tripinfo_f_0_0.2 emissions_f_0_0.2" vType="DEFAULT_VEHTYPE" speedFactor="1.01" vaporized="">
        <emissions CO_abs="3294.830585" CO2_abs="319726.352122" HC_abs="22.036398" PMx_abs="4.682249" NOx_abs="122.033369" fuel_abs="101978.213266" electricity_abs="0"/>
    </tripinfo>
    <tripinfo id="f_0_0.3" depart="16.00" departLane="A2B2_0" departPos="5.10" departSpeed="0.00" departDelay="0.00" arrival="132.00" arrivalLane="C2D2_0" arrivalPos="492.80" arrivalSpeed="14.74" duration="116.00" routeLength="1495.00" waitingTime="0.00" waitingCount="0" stopTime="0.00" timeLoss="16.59" rerouteNo="0" devices="tripinfo_f_0_0.3 emissions_f_0_0.3" vType="DEFAULT_VEHTYPE" speedFactor="1.08" vaporized="">
        <emissions CO_abs="3469.075644" CO2_abs="336634.860871" HC_abs="23.127331" PMx_abs="5.120364" NOx_abs="129.294371" fuel_abs="107371.041647" electricity_abs="0"/>
    </tripinfo>
    <tripinfo id="f_0_1.0" depart="26.00" departLane="C4C3_0" departPos="5.10" departSpeed="0.00" departDelay="0.00" arrival="138.00" arrivalLane="C2C1_0" arrivalPos="492.80" arrivalSpeed="13.70" duration="112.00" routeLength="1495.00" waitingTime="0.00" waitingCount="0" stopTime="0.00" timeLoss="8.16" rerouteNo="0" devices="tripinfo_f_0_1.0 emissions_f_0_1.0" vType="DEFAULT_VEHTYPE" speedFactor="1.05" vaporized="">
        <emissions CO_abs="2302.728228" CO2_abs="287846.578549" HC_abs="16.227188" PMx_abs="3.706090" NOx_abs="104.371606" fuel_abs="91810.208498" electricity_abs="0"/>
    </tripinfo>
    <tripinfo id="f_0_0.4" depart="20.00" departLane="A2B2_0" departPos="5.10" departSpeed="0.00" departDelay="0.00" arrival="146.00" arrivalLane="C2D2_0" arrivalPos="492.80" arrivalSpeed="14.10" duration="126.00" routeLength="1495.00" waitingTime="7.00" waitingCount="1" stopTime="0.00" timeLoss="20.84" rerouteNo="0" devices="tripinfo_f_0_0.4 emissions_f_0_0.4" vType="DEFAULT_VEHTYPE" speedFactor="1.03" vaporized="">
        <emissions CO_abs="4533.424701" CO2_abs="346960.940743" HC_abs="27.859278" PMx_abs="5.045536" NOx_abs="131.157588" fuel_abs="110665.462573" electricity_abs="0"/>
    </tripinfo>
    <tripinfo id="f_0_1.1" depart="29.00" departLane="C4C3_0" departPos="5.10" departSpeed="0.00" departDelay="2.00" arrival="160.00" arrivalLane="C2C1_0" arrivalPos="492.80" arrivalSpeed="11.76" duration="131.00" routeLength="1495.00" waitingTime="0.00" waitingCount="0" stopTime="0.00" timeLoss="9.04" rerouteNo="0" devices="tripinfo_f_0_1.1 emissions_f_0_1.1" vType="DEFAULT_VEHTYPE" speedFactor="0.89" vaporized="">
        <emissions CO_abs="3010.719328" CO2_abs="296308.271667" HC_abs="20.370203" PMx_abs="3.843648" NOx_abs="110.611703" fuel_abs="94509.436729" electricity_abs="0"/>
    </tripinfo>
    <tripinfo id="f_0_2.0" depart="40.00" departLane="E2D2_0" departPos="5.10" departSpeed="0.00" departDelay="0.00" arrival="163.00" arrivalLane="C2B2_0" arrivalPos="492.80" arrivalSpeed="13.41" duration="123.00" routeLength="1495.00" waitingTime="1.00" waitingCount="1" stopTime="0.00" timeLoss="14.14" rerouteNo="0" devices="tripinfo_f_0_2.0 emissions_f_0_2.0" vType="DEFAULT_VEHTYPE" speedFactor="0.99" vaporized="">
        <emissions CO_abs="3329.583898" CO2_abs="322800.413367" HC_abs="21.732361" PMx_abs="4.334425" NOx_abs="119.824988" fuel_abs="102959.143059" electricity_abs="0"/>
    </tripinfo>
    <tripinfo id="f_0_2.1" depart="43.00" departLane="E2D2_0" departPos="5.10" departSpeed="0.00" departDelay="1.00" arrival="167.00" arrivalLane="C2B2_0" arrivalPos="492.80" arrivalSpeed="12.93" duration="124.00" routeLength="1495.00" waitingTime="0.00" waitingCount="0" stopTime="0.00" timeLoss="9.13" rerouteNo="0" devices="tripinfo_f_0_2.1 emissions_f_0_2.1" vType="DEFAULT_VEHTYPE" speedFactor="0.94" vaporized="">
        <emissions CO_abs="2487.675194" CO2_abs="289907.739751" HC_abs="17.108467" PMx_abs="3.423200" NOx_abs="104.486696" fuel_abs="92468.069170" electricity_abs="0"/>
    </tripinfo>
    <tripinfo id="f_0_2.2" depart="46.00" departLane="E2D2_0" departPos="5.10" departSpeed="0.00" departDelay="1.00" arrival="169.00" arrivalLane="C2B2_0" arrivalPos="492.80" arrivalSpeed="13.81" duration="123.00" routeLength="1495.00" waitingTime="0.00" waitingCount="0" stopTime="0.00" timeLoss="15.63" rerouteNo="0" devices="tripinfo_f_0_2.2 emissions_f_0_2.2" vType="DEFAULT_VEHTYPE" speedFactor="1.01" vaporized="">
        <emissions CO_abs="3229.552968" CO2_abs="322082.981123" HC_abs="21.690360" PMx_abs="4.543658" NOx_abs="121.737950" fuel_abs="102730.025461" electricity_abs="0"/>
    </tripinfo>
    <tripinfo id="f_0_0.5" depart="25.00" departLane="A2B2_0" departPos="5.10" departSpeed="0.00" departDelay="0.00" arrival="170.00" arrivalLane="C2D2_0" arrivalPos="492.80" arrivalSpeed="10.59" duration="145.00" routeLength="1495.00" waitingTime="1.00" waitingCount="1" stopTime="0.00" timeLoss="15.34" rerouteNo="0" devices="tripinfo_f_0_0.5 emissions_f_0_0.5" vType="DEFAULT_VEHTYPE" speedFactor="0.83" vaporized="">
        <emissions CO_abs="4248.075551" CO2_abs="330960.699886" HC_abs="26.826918" PMx_abs="4.283002" NOx_abs="124.325865" fuel_abs="105562.578355" electricity_abs="0"/>
    </tripinfo>
    <tripinfo id="f_0_2.3" depart="50.00" departLane="E2D2_0" departPos="5.10" departSpeed="0.00" departDelay="0.00" arrival="170.00" arrivalLane="C2B2_0" arrivalPos="492.80" arrivalSpeed="12.84" duration="120.00" routeLength="1495.00" waitingTime="0.00" waitingCount="0" stopTime="0.00" timeLoss="9.59" rerouteNo="0" devices="tripinfo_f_0_2.3 emissions_f_0_2.3" vType="DEFAULT_VEHTYPE" speedFactor="0.97" vaporized="">
        <emissions CO_abs="2591.734945" CO2_abs="288275.264852" HC_abs="17.731530" PMx_abs="3.727000" NOx_abs="105.777146" fuel_abs="91947.101913" electricity_abs="0"/>
    </tripinfo>
    <tripinfo id="f_0_0.6" depart="29.00" departLane="A2B2_0" departPos="5.10" departSpeed="0.00" departDelay="0.00" arrival="172.00" arrivalLane="C2D2_0" arrivalPos="492.80" arrivalSpeed="12.90" duration="143.00" routeLength="1495.00" waitingTime="0.00" waitingCount="0" stopTime="0.00" timeLoss="27.70" rerouteNo="0" devices="tripinfo_f_0_0.6 emissions_f_0_0.6" vType="DEFAULT_VEHTYPE" speedFactor="0.94" vaporized="">
        <emissions CO_abs="4832.481402" CO2_abs="359972.981521" HC_abs="30.218210" PMx_abs="5.367327" NOx_abs="140.012881" fuel_abs="114815.582267" electricity_abs="0"/>
    </tripinfo>
    <tripinfo id="f_0_0.7" depart="32.00" departLane="A2B2_0" departPos="5.10" departSpeed="0.00" departDelay="0.00" arrival="174.00" arrivalLane="C2D2_0" arrivalPos="492.80" arrivalSpeed="13.90" duration="142.00" routeLength="1495.00" waitingTime="0.00" waitingCount="0" stopTime="0.00" timeLoss="42.45" rerouteNo="0" devices="tripinfo_f_0_0.7 emissions_f_0_0.7" vType="DEFAULT_VEHTYPE" speedFactor="1.09" vaporized="">
        <emissions CO_abs="5773.080809" CO2_abs="390001.700739" HC_abs="35.362285" PMx_abs="6.832485" NOx_abs="159.115706" fuel_abs="124392.536569" electricity_abs="0"/>
    </tripinfo>
    <tripinfo id="f_0_0.8" depart="35.00" departLane="A2B2_0" departPos="5.10" departSpeed="0.00" departDelay="1.00" arrival="175.00" arrivalLane="C2D2_0" arrivalPos="492.80" arrivalSpeed="13.55" duration="140.00" routeLength="1495.00" waitingTime="0.00" waitingCount="0" stopTime="0.00" timeLoss="34.98" rerouteNo="0" devices="tripinfo_f_0_0.8 emissions_f_0_0.8" vType="DEFAULT_VEHTYPE" speedFactor="1.03" vaporized="">
        <emissions CO_abs="5879.512387" CO2_abs="402784.046747" HC_abs="36.090004" PMx_abs="7.018030" NOx_abs="163.814640" fuel_abs="128469.512504" electricity_abs="0"/>
    </tripinfo>
    <tripinfo id="f_0_0.9" depart="39.00" departLane="A2B2_0" departPos="5.10" departSpeed="0.00" departDelay="0.00" arrival="177.00" arrivalLane="C2D2_0" arrivalPos="492.80" arrivalSpeed="13.59" duration="138.00" routeLength="1495.00" waitingTime="0.00" waitingCount="0" stopTime="0.00" timeLoss="34.81" rerouteNo="0" devices="tripinfo_f_0_0.9 emissions_f_0_0.9" vType="DEFAULT_VEHTYPE" speedFactor="1.05" vaporized="">
        <emissions CO_abs="6162.507472" CO2_abs="430008.316095" HC_abs="37.815189" PMx_abs="7.383953" NOx_abs="173.600673" fuel_abs="137152.860578" electricity_abs="0"/>
    </tripinfo>
    <tripinfo id="f_0_0.10" depart="42.00" departLane="A2B2_0" departPos="5.10" departSpeed="0.00" departDelay="2.00" arrival="179.00" arrivalLane="C2D2_0" arrivalPos="492.80" arrivalSpeed="14.48" duration="137.00" routeLength="1495.00" waitingTime="5.00" waitingCount="1" stopTime="0.00" timeLoss="40.49" rerouteNo="0" devices="tripinfo_f_0_0.10 emissions_f_0_0.10" vType="DEFAULT_VEHTYPE" speedFactor="1.12" vaporized="">
        <emissions CO_abs="6937.911746" CO2_abs="446596.549772" HC_abs="41.804056" PMx_abs="7.839726" NOx_abs="180.605527" fuel_abs="142443.941402" electricity_abs="0"/>
    </tripinfo>
    <tripinfo id="f_0_0.11" depart="45.00" departLane="A2B2_0" departPos="5.10" departSpeed="0.00" departDelay="4.00" arrival="181.00" arrivalLane="C2D2_0" arrivalPos="492.80" arrivalSpeed="11.71" duration="136.00" routeLength="1495.00" waitingTime="0.00" waitingCount="0" stopTime="0.00" timeLoss="19.48" rerouteNo="0" devices="tripinfo_f_0_0.11 emissions_f_0_0.11" vType="DEFAULT_VEHTYPE" speedFactor="0.93" vaporized="">
        <emissions CO_abs="4649.027217" CO2_abs="362531.847666" HC_abs="29.291789" PMx_abs="5.379761" NOx_abs="140.214685" fuel_abs="115631.664428" electricity_abs="0"/>
    </tripinfo>
    <tripinfo id="f_0_0.12" depart="48.00" departLane="A2B2_0" departPos="5.10" departSpeed="0.00" departDelay="4.00" arrival="183.00" arrivalLane="C2D2_0" arrivalPos="492.80" arrivalSpeed="12.05" duration="135.00" routeLength="1495.00" waitingTime="0.00" waitingCount="0" stopTime="0.00" timeLoss="19.33" rerouteNo="0" devices="tripinfo_f_0_0.12 emissions_f_0_0.12" vType="DEFAULT_VEHTYPE" speedFactor="0.94" vaporized="">
        <emissions CO_abs="4408.036979" CO2_abs="349209.407980" HC_abs="27.976851" PMx_abs="5.356838" NOx_abs="136.351628" fuel_abs="111382.142142" electricity_abs="0"/>
    </tripinfo>
    <tripinfo id="f_0_0.13" depart="51.00" departLane="A2B2_0" departPos="5.10" departSpeed="0.00" departDelay="6.00" arrival="184.00" arrivalLane="C2D2_0" arrivalPos="492.80" arrivalSpeed="15.59" duration="133.00" routeLength="1495.00" waitingTime="0.00" waitingCount="0" stopTime="0.00" timeLoss="39.85" rerouteNo="0" devices="tripinfo_f_0_0.13 emissions_f_0_0.13" vType="DEFAULT_VEHTYPE" speedFactor="1.16" vaporized="">
        <emissions CO_abs="4992.116006" CO2_abs="374170.397686" HC_abs="31.300957" PMx_abs="6.234611" NOx_abs="149.706102" fuel_abs="119343.151029" electricity_abs="0"/>
    </tripinfo>
    <tripinfo id="f_0_3.0" depart="80.00" departLane="C0C1_0" departPos="5.10" departSpeed="0.00" departDelay="0.00" arrival="186.00" arrivalLane="C2C3_0" arrivalPos="492.80" arrivalSpeed="15.09" duration="106.00" routeLength="1495.00" waitingTime="0.00" waitingCount="0" stopTime="0.00" timeLoss="7.60" rerouteNo="0" devices="tripinfo_f_0_3.0 emissions_f_0_3.0" vType="DEFAULT_VEHTYPE" speedFactor="1.10" vaporized="">
        <emissions CO_abs="2187.240964" CO2_abs="281778.452126" HC_abs="15.490095" PMx_abs="3.717429" NOx_abs="101.692899" fuel_abs="89874.622943" electricity_abs="0"/>
    </tripinfo>
    <tripinfo id="f_0_1.2" depart="32.00" departLane="C4C3_0" departPos="5.10" departSpeed="0.00" departDelay="3.00" arrival="191.00" arrivalLane="C2C1_0" arrivalPos="492.80" arrivalSpeed="10.91" duration="159.00" routeLength="1495.00" waitingTime="19.00" waitingCount="1" stopTime="0.00" timeLoss="33.31" rerouteNo="0" devices="tripinfo_f_0_1.2 emissions_f_0_1.2" vType="DEFAULT_VEHTYPE" speedFactor="0.86" vaporized="">
        <emissions CO_abs="6825.255530" CO2_abs="374192.105534" HC_abs="39.471654" PMx_abs="5.289962" NOx_abs="143.201004" fuel_abs="119352.368970" electricity_abs="0"/>
    </tripinfo>
    <tripinfo id="f_0_1.3" depart="42.00" departLane="C4C3_0" departPos="5.10" departSpeed="0.00" departDelay="0.00" arrival="193.00" arrivalLane="C2C1_0" arrivalPos="492.80" arrivalSpeed="11.15" duration="151.00" routeLength="1495.00" waitingTime="13.00" waitingCount="1" stopTime="0.00" timeLoss="28.16" rerouteNo="0" devices="tripinfo_f_0_1.3 emissions_f_0_1.3" vType="DEFAULT_VEHTYPE" speedFactor="0.88" vaporized="">
        <emissions CO_abs="5935.202787" CO2_abs="359241.612311" HC_abs="35.057837" PMx_abs="5.165245" NOx_abs="137.869027" fuel_abs="114583.277536" electricity_abs="0"/>
    </tripinfo>
    <tripinfo id="f_0_1.4" depart="45.00" departLane="C4C3_0" departPos="5.10" departSpeed="0.00" departDelay="0.00" arrival="195.00" arrivalLane="C2C1_0" arrivalPos="492.80" arrivalSpeed="13.46" duration="150.00" routeLength="1495.00" waitingTime="13.00" waitingCount="1" stopTime="0.00" timeLoss="43.73" rerouteNo="0" devices="tripinfo_f_0_1.4 emissions_f_0_1.4" vType="DEFAULT_VEHTYPE" speedFactor="1.02" vaporized="">
        <emissions CO_abs="6918.117827" CO2_abs="397592.630663" HC_abs="40.547658" PMx_abs="6.529107" NOx_abs="158.555198" fuel_abs="126814.906626" electricity_abs="0"/>
    </tripinfo>
    <tripinfo id="f_0_1.5" depart="51.00" departLane="C4C3_0" departPos="5.10" departSpeed="0.00" departDelay="0.00" arrival="197.00" arrivalLane="C2C1_0" arrivalPos="492.80" arrivalSpeed="11.17" duration="146.00" routeLength="1495.00" waitingTime="8.00" waitingCount="1" stopTime="0.00" timeLoss="24.44" rerouteNo="0" devices="tripinfo_f_0_1.5 emissions_f_0_1.5" vType="DEFAULT_VEHTYPE" speedFactor="0.89" vaporized="">
        <emissions CO_abs="5643.082506" CO2_abs="369057.385448" HC_abs="33.934598" PMx_abs="5.535270" NOx_abs="143.183591" fuel_abs="117713.549506" electricity_abs="0"/>
    </tripinfo>
    <tripinfo id="f_0_2.4" depart="65.00" departLane="E2D2_0" departPos="5.10" departSpeed="0.00" departDelay="0.00" arrival="201.00" arrivalLane="C2B2_0" arrivalPos="492.80" arrivalSpeed="12.42" duration="136.00" routeLength="1495.00" waitingTime="5.00" waitingCount="1" stopTime="0.00" timeLoss="19.80" rerouteNo="0" devices="tripinfo_f_0_2.4 emissions_f_0_2.4" vType="DEFAULT_VEHTYPE" speedFactor="0.93" vaporized="">
        <emissions CO_abs="4656.762400" CO2_abs="334363.901318" HC_abs="28.517059" PMx_abs="4.878938" NOx_abs="127.949678" fuel_abs="106647.700208" electricity_abs="0"/>
    </tripinfo>
    <tripinfo id="f_0_0.14" depart="59.00" departLane="A2B2_0" departPos="5.10" departSpeed="0.00" departDelay="0.00" arrival="202.00" arrivalLane="C2D2_0" arrivalPos="492.80" arrivalSpeed="12.12" duration="143.00" routeLength="1495.00" waitingTime="10.00" waitingCount="1" stopTime="0.00" timeLoss="24.85" rerouteNo="0" devices="tripinfo_f_0_0.14 emissions_f_0_0.14" vType="DEFAULT_VEHTYPE" speedFactor="0.92" vaporized="">
        <emissions CO_abs="5050.224537" CO2_abs="352788.740778" HC_abs="30.590184" PMx_abs="4.756448" NOx_abs="132.335145" fuel_abs="112524.974905" electricity_abs="0"/>
    </tripinfo>
    <tripinfo id="f_0_2.5" depart="68.00" departLane="E2D2_0" departPos="5.10" departSpeed="0.00" departDelay="1.00" arrival="202.00" arrivalLane="C2B2_0" arrivalPos="492.80" arrivalSpeed="15.19" duration="134.00" routeLength="1495.00" waitingTime="5.00" waitingCount="1" stopTime="0.00" timeLoss="42.56" rerouteNo="0" devices="tripinfo_f_0_2.5 emissions_f_0_2.5" vType="DEFAULT_VEHTYPE" speedFactor="1.18" vaporized="">
        <emissions CO_abs="5610.300004" CO2_abs="384014.977204" HC_abs="34.268972" PMx_abs="6.220327" NOx_abs="151.714922" fuel_abs="122483.686881" electricity_abs="0"/>
    </tripinfo>
    <tripinfo id="f_0_0.15" depart="62.00" departLane="A2B2_0" departPos="5.10" departSpeed="0.00" departDelay="0.00" arrival="203.00" arrivalLane="C2D2_0" arrivalPos="492.80" arrivalSpeed="14.96" duration="141.00" routeLength="1495.00" waitingTime="10.00" waitingCount="1" stopTime="0.00" timeLoss="45.65" rerouteNo="0" devices="tripinfo_f_0_0.15 emissions_f_0_0.15" vType="DEFAULT_VEHTYPE" speedFactor="1.13" vaporized="">
        <emissions CO_abs="6304.730219" CO2_abs="384963.009180" HC_abs="37.308024" PMx_abs="6.365101" NOx_abs="153.170947" fuel_abs="122786.329049" electricity_abs="0"/>
    </tripinfo>
    <tripinfo id="f_0_2.6" depart="79.00" departLane="E2D2_0" departPos="5.10" departSpeed="0.00" departDelay="0.00" arrival="204.00" arrivalLane="C2B2_0" arrivalPos="492.80" arrivalSpeed="12.87" duration="125.00" routeLength="1495.00" waitingTime="0.00" waitingCount="0" stopTime="0.00" timeLoss="14.24" rerouteNo="0" devices="tripinfo_f_0_2.6 emissions_f_0_2.6" vType="DEFAULT_VEHTYPE" speedFactor="0.97" vaporized="">
        <emissions CO_abs="3398.522482" CO2_abs="318864.946583" HC_abs="22.245420" PMx_abs="4.430612" NOx_abs="120.134833" fuel_abs="101703.782455" electricity_abs="0"/>
    </tripinfo>
    <tripinfo id="f_0_0.16" depart="71.00" departLane="A2B2_0" departPos="5.10" departSpeed="0.00" departDelay="0.00" arrival="205.00" arrivalLane="C2D2_0" arrivalPos="492.80" arrivalSpeed="13.57" duration="134.00" routeLength="1495.00" waitingTime="7.00" waitingCount="1" stopTime="0.00" timeLoss="26.48" rerouteNo="0" devices="tripinfo_f_0_0.16 emissions_f_0_0.16" vType="DEFAULT_VEHTYPE" speedFactor="1.01" vaporized="">
        <emissions CO_abs="5687.705200" CO2_abs="365598.835244" HC_abs="34.016762" PMx_abs="5.974993" NOx_abs="144.398136" fuel_abs="116609.915510" electricity_abs="0"/>
    </tripinfo>
    <tripinfo id="f_0_0.17" depart="74.00" departLane="A2B2_0" departPos="5.10" departSpeed="0.00" departDelay="2.00" arrival="207.00" arrivalLane="C2D2_0" arrivalPos="492.80" arrivalSpeed="15.44" duration="133.00" routeLength="1495.00" waitingTime="7.00" waitingCount="1" stopTime="0.00" timeLoss="40.34" rerouteNo="0" devices="tripinfo_f_0_0.17 emissions_f_0_0.17" vType="DEFAULT_VEHTYPE" speedFactor="1.17" vaporized="">
        <emissions CO_abs="5703.226856" CO2_abs="388872.598146" HC_abs="34.595748" PMx_abs="6.424737" NOx_abs="153.727472" fuel_abs="124032.917411" electricity_abs="0"/>
    </tripinfo>
    <tripinfo id="f_0_0.18" depart="81.00" departLane="A2B2_0" departPos="5.10" departSpeed="0.00" departDelay="0.00" arrival="210.00" arrivalLane="C2D2_0" arrivalPos="492.80" arrivalSpeed="11.64" duration="129.00" routeLength="1495.00" waitingTime="0.00" waitingCount="0" stopTime="0.00" timeLoss="8.76" rerouteNo="0" devices="tripinfo_f_0_0.18 emissions_f_0_0.18" vType="DEFAULT_VEHTYPE" speedFactor="0.90" vaporized="">
        <emissions CO_abs="2736.525401" CO2_abs="288622.510337" HC_abs="18.735400" PMx_abs="3.594549" NOx_abs="106.247542" fuel_abs="92058.085226" electricity_abs="0"/>
    </tripinfo>
    <tripinfo id="f_0_3.1" depart="83.00" departLane="C0C1_0" departPos="5.10" departSpeed="0.00" departDelay="2.00" arrival="212.00" arrivalLane="C2C3_0" arrivalPos="492.80" arrivalSpeed="13.85" duration="129.00" routeLength="1495.00" waitingTime="12.00" waitingCount="1" stopTime="0.00" timeLoss="24.06" rerouteNo="0" devices="tripinfo_f_0_3.1 emissions_f_0_3.1" vType="DEFAULT_VEHTYPE" speedFactor="1.03" vaporized="">
        <emissions CO_abs="5260.059043" CO2_abs="350442.871888" HC_abs="31.479206" PMx_abs="5.402066" NOx_abs="134.792509" fuel_abs="111776.135558" electricity_abs="0"/>
    </tripinfo>
    <tripinfo id="f_0_3.2" depart="86.00" departLane="C0C1_0" departPos="5.10" departSpeed="0.00" departDelay="1.00" arrival="214.00" arrivalLane="C2C3_0" arrivalPos="492.80" arrivalSpeed="14.33" duration="128.00" routeLength="1495.00" waitingTime="11.00" waitingCount="1" stopTime="0.00" timeLoss="23.79" rerouteNo="0" devices="tripinfo_f_0_3.2 emissions_f_0_3.2" vType="DEFAULT_VEHTYPE" speedFactor="1.04" vaporized="">
        <emissions CO_abs="4890.690991" CO2_abs="345277.250230" HC_abs="29.277463" PMx_abs="5.025101" NOx_abs="130.468958" fuel_abs="110128.642458" electricity_abs="0"/>
    </tripinfo>
    <tripinfo id="f_0_3.3" depart="89.00" departLane="C0C1_0" departPos="5.10" departSpeed="0.00" departDelay="3.00" arrival="216.00" arrivalLane="C2C3_0" arrivalPos="492.80" arrivalSpeed="14.06" duration="127.00" routeLength="1495.00" waitingTime="9.00" waitingCount="1" stopTime="0.00" timeLoss="23.52" rerouteNo="0" devices="tripinfo_f_0_3.3 emissions_f_0_3.3" vType="DEFAULT_VEHTYPE" speedFactor="1.04" vaporized="">
        <emissions CO_abs="4811.574627" CO2_abs="344947.325790" HC_abs="28.955421" PMx_abs="4.991983" NOx_abs="129.655090" fuel_abs="110023.417513" electricity_abs="0"/>
    </tripinfo>
    <tripinfo id="f_0_3.4" depart="92.00" departLane="C0C1_0" departPos="5.10" departSpeed="0.00" departDelay="5.00" arrival="220.00" arrivalLane="C2C3_0" arrivalPos="492.80" arrivalSpeed="13.06" duration="128.00" routeLength="1495.00" waitingTime="5.00" waitingCount="1" stopTime="0.00" timeLoss="19.46" rerouteNo="0" devices="tripinfo_f_0_3.4 emissions_f_0_3.4" vType="DEFAULT_VEHTYPE" speedFactor="1.00" vaporized="">
        <emissions CO_abs="4350.300237" CO2_abs="334717.003422" HC_abs="26.968203" PMx_abs="4.822674" NOx_abs="126.597484" fuel_abs="106760.230674" electricity_abs="0"/>
    </tripinfo>
    <tripinfo id="f_0_1.6" depart="56.00" departLane="C4C3_0" departPos="5.10" departSpeed="0.00" departDelay="0.00" arrival="222.00" arrivalLane="C2C1_0" arrivalPos="492.80" arrivalSpeed="11.29" duration="166.00" routeLength="1495.00" waitingTime="16.00" waitingCount="2" stopTime="0.00" timeLoss="35.05" rerouteNo="0" devices="tripinfo_f_0_1.6 emissions_f_0_1.6" vType="DEFAULT_VEHTYPE" speedFactor="0.83" vaporized="">
        <emissions CO_abs="7363.047337" CO2_abs="390229.812565" HC_abs="42.440775" PMx_abs="5.733622" NOx_abs="151.667957" fuel_abs="124467.600341" electricity_abs="0"/>
    </tripinfo>
    <tripinfo id="f_0_1.7" depart="59.00" departLane="C4C3_0" departPos="5.10" departSpeed="0.00" departDelay="1.00" arrival="224.00" arrivalLane="C2C1_0" arrivalPos="492.80" arrivalSpeed="11.48" duration="165.00" routeLength="1495.00" waitingTime="13.00" waitingCount="2" stopTime="0.00" timeLoss="40.97" rerouteNo="0" devices="tripinfo_f_0_1.7 emissions_f_0_1.7" vType="DEFAULT_VEHTYPE" speedFactor="0.87" vaporized="">
        <emissions CO_abs="8070.188291" CO2_abs="427183.497876" HC_abs="46.531132" PMx_abs="6.885058" NOx_abs="170.057149" fuel_abs="136253.646847" electricity_abs="0"/>
    </tripinfo>
    <tripinfo id="f_0_1.8" depart="62.00" departLane="C4C3_0" departPos="5.10" departSpeed="0.00" departDelay="2.00" arrival="226.00" arrivalLane="C2C1_0" arrivalPos="492.80" arrivalSpeed="11.94" duration="164.00" routeLength="1495.00" waitingTime="12.00" waitingCount="2" stopTime="0.00" timeLoss="49.74" rerouteNo="0" devices="tripinfo_f_0_1.8 emissions_f_0_1.8" vType="DEFAULT_VEHTYPE" speedFactor="0.95" vaporized="">
        <emissions CO_abs="8174.483529" CO2_abs="425242.425700" HC_abs="47.045051" PMx_abs="7.115616" NOx_abs="171.134471" fuel_abs="135634.298902" electricity_abs="0"/>
    </tripinfo>
    <tripinfo id="f_0_1.9" depart="69.00" departLane="C4C3_0" departPos="5.10" departSpeed="0.00" departDelay="0.00" arrival="227.00" arrivalLane="C2C1_0" arrivalPos="492.80" arrivalSpeed="13.34" duration="158.00" routeLength="1495.00" waitingTime="10.00" waitingCount="1" stopTime="0.00" timeLoss="64.55" rerouteNo="0" devices="tripinfo_f_0_1.9 emissions_f_0_1.9" vType="DEFAULT_VEHTYPE" speedFactor="1.15" vaporized="">
        <emissions CO_abs="8855.199494" CO2_abs="468550.466593" HC_abs="51.104621" PMx_abs="8.212870" NOx_abs="190.876474" fuel_abs="149447.176634" electricity_abs="0"/>
    </tripinfo>
    <tripinfo id="f_0_3.5" depart="95.00" departLane="C0C1_0" departPos="5.10" departSpeed="0.00" departDelay="6.00" arrival="227.00" arrivalLane="C2C3_0" arrivalPos="492.80" arrivalSpeed="11.24" duration="132.00" routeLength="1495.00" waitingTime="0.00" waitingCount="0" stopTime="0.00" timeLoss="8.90" rerouteNo="0" devices="tripinfo_f_0_3.5 emissions_f_0_3.5" vType="DEFAULT_VEHTYPE" speedFactor="0.88" vaporized="">
        <emissions CO_abs="2913.978398" CO2_abs="296155.914848" HC_abs="19.749251" PMx_abs="3.653038" NOx_abs="109.069176" fuel_abs="94461.013189" electricity_abs="0"/>
    </tripinfo>
    <tripinfo id="f_0_1.10" depart="73.00" departLane="C4C3_0" departPos="5.10" departSpeed="0.00" departDelay="0.00" arrival="229.00" arrivalLane="C2C1_0" arrivalPos="492.80" arrivalSpeed="13.58" duration="156.00" routeLength="1495.00" waitingTime="10.00" waitingCount="1" stopTime="0.00" timeLoss="47.24" rerouteNo="0" devices="tripinfo_f_0_1.10 emissions_f_0_1.10" vType="DEFAULT_VEHTYPE" speedFactor="0.99" vaporized="">
        <emissions CO_abs="8329.109186" CO2_abs="458150.997102" HC_abs="48.518932" PMx_abs="8.002953" NOx_abs="186.488175" fuel_abs="146130.038687" electricity_abs="0"/>
    </tripinfo>
    <tripinfo id="f_0_3.6" depart="98.00" departLane="C0C1_0" departPos="5.10" departSpeed="0.00" departDelay="3.00" arrival="229.00" arrivalLane="C2C3_0" arrivalPos="492.80" arrivalSpeed="13.70" duration="131.00" routeLength="1495.00" waitingTime="0.00" waitingCount="0" stopTime="0.00" timeLoss="24.34" rerouteNo="0" devices="tripinfo_f_0_3.6 emissions_f_0_3.6" vType="DEFAULT_VEHTYPE" speedFactor="1.02" vaporized="">
        <emissions CO_abs="3617.926764" CO2_abs="327476.780623" HC_abs="23.802872" PMx_abs="4.674354" NOx_abs="125.106470" fuel_abs="104450.530050" electricity_abs="0"/>
    </tripinfo>
    <tripinfo id="f_0_1.11" depart="77.00" departLane="C4C3_0" departPos="5.10" departSpeed="0.00" departDelay="0.00" arrival="231.00" arrivalLane="C2C1_0" arrivalPos="492.80" arrivalSpeed="12.88" duration="154.00" routeLength="1495.00" waitingTime="9.00" waitingCount="1" stopTime="0.00" timeLoss="47.65" rerouteNo="0" devices="tripinfo_f_0_1.11 emissions_f_0_1.11" vType="DEFAULT_VEHTYPE" speedFactor="1.02" vaporized="">
        <emissions CO_abs="8345.644006" CO2_abs="468140.465244" HC_abs="48.810081" PMx_abs="8.324620" NOx_abs="191.370038" fuel_abs="149315.971139" electricity_abs="0"/>
    </tripinfo>
    <tripinfo id="f_0_1.12" depart="80.00" departLane="C4C3_0" departPos="5.10" departSpeed="0.00" departDelay="0.00" arrival="232.00" arrivalLane="C2C1_0" arrivalPos="492.80" arrivalSpeed="15.81" duration="152.00" routeLength="1495.00" waitingTime="9.00" waitingCount="1" stopTime="0.00" timeLoss="60.51" rerouteNo="0" devices="tripinfo_f_0_1.12 emissions_f_0_1.12" vType="DEFAULT_VEHTYPE" speedFactor="1.18" vaporized="">
        <emissions CO_abs="8573.493275" CO2_abs="487344.954683" HC_abs="50.274328" PMx_abs="8.889307" NOx_abs="200.494715" fuel_abs="155441.009226" electricity_abs="0"/>
    </tripinfo>
    <tripinfo id="f_0_1.13" depart="83.00" departLane="C4C3_0" departPos="5.10" departSpeed="0.00" departDelay="0.00" arrival="234.00" arrivalLane="C2C1_0" arrivalPos="492.80" arrivalSpeed="13.02" duration="151.00" routeLength="1495.00" waitingTime="9.00" waitingCount="1" stopTime="0.00" timeLoss="38.33" rerouteNo="0" devices="tripinfo_f_0_1.13 emissions_f_0_1.13" vType="DEFAULT_VEHTYPE" speedFactor="0.96" vaporized="">
        <emissions CO_abs="6969.683856" CO2_abs="418990.402693" HC_abs="41.165352" PMx_abs="6.912897" NOx_abs="167.104401" fuel_abs="133639.627578" electricity_abs="0"/>
    </tripinfo>
    <tripinfo id="f_0_1.14" depart="86.00" departLane="C4C3_0" departPos="5.10" departSpeed="0.00" departDelay="1.00" arrival="236.00" arrivalLane="C2C1_0" arrivalPos="492.80" arrivalSpeed="14.15" duration="150.00" routeLength="1495.00" waitingTime="7.00" waitingCount="1" stopTime="0.00" timeLoss="50.88" rerouteNo="0" devices="tripinfo_f_0_1.14 emissions_f_0_1.14" vType="DEFAULT_VEHTYPE" speedFactor="1.09" vaporized="">