<?xml version="1.0" encoding="UTF-8"?>

<!-- generated on 2024-08-22 12:40:26 by Eclipse SUMO sumo Version 1.17.0
<configuration xmlns:xsi="http://www.w3.org/2001/XMLSchema-instance" xsi:noNamespaceSchemaLocation="http://sumo.dlr.de/xsd/sumoConfiguration.xsd">

    <input>
        <net-file value="single_actuated.net.xml"/>
        <route-files value="single_1.rou.xml"/>
    </input>

    <output>
        <tripinfo-output value="emissions_test\z_actuated_1_emissions_tripinfo_single.xml"/>
    </output>

    <processing>
        <time-to-teleport value="-1"/>
    </processing>

    <emissions>
        <device.emissions.probability value="1.0"/>
    </emissions>

    <traci_server>
        <remote-port value="57283"/>
    </traci_server>

</configuration>
-->

<tripinfos xmlns:xsi="http://www.w3.org/2001/XMLSchema-instance" xsi:noNamespaceSchemaLocation="http://sumo.dlr.de/xsd/tripinfo_file.xsd">
    <tripinfo id="f_0_0.0" depart="2.00" departLane="A2B2_0" departPos="5.10" departSpeed="0.00" departDelay="0.00" arrival="111.00" arrivalLane="C2D2_0" arrivalPos="492.80" arrivalSpeed="14.60" duration="109.00" routeLength="1495.00" waitingTime="0.00" waitingCount="0" stopTime="0.00" timeLoss="7.03" rerouteNo="0" devices="tripinfo_f_0_0.0 emissions_f_0_0.0" vType="DEFAULT_VEHTYPE" speedFactor="1.06" vaporized="">
        <emissions CO_abs="2325.985063" CO2_abs="287178.543436" HC_abs="16.413825" PMx_abs="3.900526" NOx_abs="105.756872" fuel_abs="91596.920439" electricity_abs="0"/>
    </tripinfo>
    <tripinfo id="f_0_0.1" depart="5.00" departLane="A2B2_0" departPos="5.10" departSpeed="0.00" departDelay="0.00" arrival="130.00" arrivalLane="C2D2_0" arrivalPos="492.80" arrivalSpeed="12.19" duration="125.00" routeLength="1495.00" waitingTime="0.00" waitingCount="0" stopTime="0.00" timeLoss="10.06" rerouteNo="0" devices="tripinfo_f_0_0.1 emissions_f_0_0.1" vType="DEFAULT_VEHTYPE" speedFactor="0.94" vaporized="">
        <emissions CO_abs="2885.780853" CO2_abs="306943.032655" HC_abs="19.626433" PMx_abs="3.941348" NOx_abs="113.373782" fuel_abs="97901.373204" electricity_abs="0"/>
    </tripinfo>
    <tripinfo id="f_0_0.2" depart="10.00" departLane="A2B2_0" departPos="5.10" departSpeed="0.00" departDelay="0.00" arrival="132.00" arrivalLane="C2D2_0" arrivalPos="492.80" arrivalSpeed="13.77" duration="122.00" routeLength="1495.00" waitingTime="0.00" waitingCount="0" stopTime="0.00" timeLoss="14.84" rerouteNo="0" devices="tripinfo_f_0_0.2 emissions_f_0_0.2" vType="DEFAULT_VEHTYPE" speedFactor="1.01" vaporized="">
        <emissions CO_abs="3163.746149" CO2_abs="317370.318731" HC_abs="21.233039" PMx_abs="4.452572" NOx_abs="119.674384" fuel_abs="101226.900986" electricity_abs="0"/>
    </tripinfo>
    <tripinfo id="f_0_0.3" depart="16.00" departLane="A2B2_0" departPos="5.10" departSpeed="0.00" departDelay="0.00" arrival="134.00" arrivalLane="C2D2_0" arrivalPos="492.80" arrivalSpeed="14.22" duration="118.00" routeLength="1495.00" waitingTime="0.00" waitingCount="0" stopTime="0.00" timeLoss="17.67" rerouteNo="0" devices="tripinfo_f_0_0.3 emissions_f_0_0.3" vType="DEFAULT_VEHTYPE" speedFactor="1.08" vaporized="">
        <emissions CO_abs="3364.542383" CO2_abs="322895.425517" HC_abs="22.501146" PMx_abs="4.908689" NOx_abs="124.225399" fuel_abs="102988.823400" electricity_abs="0"/>
    </tripinfo>
    <tripinfo id="f_0_0.4" depart="20.00" departLane="A2B2_0" departPos="5.10" departSpeed="0.00" departDelay="0.00" arrival="135.00" arrivalLane="C2D2_0" arrivalPos="492.80" arrivalSpeed="14.24" duration="115.00" routeLength="1495.00" waitingTime="0.00" waitingCount="0" stopTime="0.00" timeLoss="10.23" rerouteNo="0" devices="tripinfo_f_0_0.4 emissions_f_0_0.4" vType="DEFAULT_VEHTYPE" speedFactor="1.03" vaporized="">
        <emissions CO_abs="2709.103105" CO2_abs="307830.172983" HC_abs="18.756217" PMx_abs="4.171704" NOx_abs="114.114691" fuel_abs="98183.982966" electricity_abs="0"/>
    </tripinfo>
    <tripinfo id="f_0_1.0" depart="27.00" departLane="C4C3_0" departPos="5.10" departSpeed="0.00" departDelay="0.00" arrival="139.00" arrivalLane="C2C1_0" arrivalPos="492.80" arrivalSpeed="13.58" duration="112.00" routeLength="1495.00" waitingTime="0.00" waitingCount="0" stopTime="0.00" timeLoss="8.89" rerouteNo="0" devices="tripinfo_f_0_1.0 emissions_f_0_1.0" vType="DEFAULT_VEHTYPE" speedFactor="1.05" vaporized="">
        <emissions CO_abs="2681.077422" CO2_abs="298717.708660" HC_abs="18.401066" PMx_abs="4.137686" NOx_abs="110.839696" fuel_abs="95277.450593" electricity_abs="0"/>
    </tripinfo>
    <tripinfo id="f_0_2.0" depart="45.00" departLane="E2D2_0" departPos="5.10" departSpeed="0.00" departDelay="0.00" arrival="165.00" arrivalLane="C2B2_0" arrivalPos="492.80" arrivalSpeed="13.25" duration="120.00" routeLength="1495.00" waitingTime="3.00" waitingCount="1" stopTime="0.00" timeLoss="16.64" rerouteNo="0" devices="tripinfo_f_0_2.0 emissions_f_0_2.0" vType="DEFAULT_VEHTYPE" speedFactor="1.05" vaporized="">
        <emissions CO_abs="3713.909505" CO2_abs="331475.176067" HC_abs="23.712973" PMx_abs="4.732787" NOx_abs="124.398457" fuel_abs="105725.882302" electricity_abs="0"/>
    </tripinfo>
    <tripinfo id="f_0_2.1" depart="50.00" departLane="E2D2_0" departPos="5.10" departSpeed="0.00" departDelay="0.00" arrival="166.00" arrivalLane="C2B2_0" arrivalPos="492.80" arrivalSpeed="15.25" duration="116.00" routeLength="1495.00" waitingTime="2.00" waitingCount="1" stopTime="0.00" timeLoss="20.14" rerouteNo="0" devices="tripinfo_f_0_2.1 emissions_f_0_2.1" vType="DEFAULT_VEHTYPE" speedFactor="1.12" vaporized="">
        <emissions CO_abs="3948.084973" CO2_abs="348927.433920" HC_abs="25.000447" PMx_abs="5.121259" NOx_abs="131.248355" fuel_abs="111292.225899" electricity_abs="0"/>
    </tripinfo>
    <tripinfo id="f_0_0.5" depart="25.00" departLane="A2B2_0" departPos="5.10" departSpeed="0.00" departDelay="0.00" arrival="174.00" arrivalLane="C2D2_0" arrivalPos="492.80" arrivalSpeed="10.45" duration="149.00" routeLength="1495.00" waitingTime="3.00" waitingCount="1" stopTime="0.00" timeLoss="18.82" rerouteNo="0" devices="tripinfo_f_0_0.5 emissions_f_0_0.5" vType="DEFAULT_VEHTYPE" speedFactor="0.83" vaporized="">
        <emissions CO_abs="4895.563230" CO2_abs="340490.398665" HC_abs="29.990723" PMx_abs="4.556124" NOx_abs="128.952992" fuel_abs="108602.306201" electricity_abs="0"/>
    </tripinfo>
    <tripinfo id="f_0_0.6" depart="34.00" departLane="A2B2_0" departPos="5.10" departSpeed="0.00" departDelay="0.00" arrival="175.00" arrivalLane="C2D2_0" arrivalPos="492.80" arrivalSpeed="12.24" duration="141.00" routeLength="1495.00" waitingTime="3.00" waitingCount="1" stopTime="0.00" timeLoss="19.53" rerouteNo="0" devices="tripinfo_f_0_0.6 emissions_f_0_0.6" vType="DEFAULT_VEHTYPE" speedFactor="0.89" vaporized="">
        <emissions CO_abs="4605.862457" CO2_abs="344689.844417" HC_abs="28.712501" PMx_abs="4.874966" NOx_abs="131.741083" fuel_abs="109941.267208" electricity_abs="0"/>
    </tripinfo>
    <tripinfo id="f_0_0.7" depart="41.00" departLane="A2B2_0" departPos="5.10" departSpeed="0.00" departDelay="0.00" arrival="177.00" arrivalLane="C2D2_0" arrivalPos="492.80" arrivalSpeed="12.06" duration="136.00" routeLength="1495.00" waitingTime="3.00" waitingCount="1" stopTime="0.00" timeLoss="21.02" rerouteNo="0" devices="tripinfo_f_0_0.7 emissions_f_0_0.7" vType="DEFAULT_VEHTYPE" speedFactor="0.94" vaporized="">
        <emissions CO_abs="4736.014137" CO2_abs="348728.258985" HC_abs="29.422887" PMx_abs="5.277254" NOx_abs="135.403589" fuel_abs="111228.991445" electricity_abs="0"/>
    </tripinfo>
    <tripinfo id="f_0_0.8" depart="44.00" departLane="A2B2_0" departPos="5.10" departSpeed="0.00" departDelay="0.00" arrival="179.00" arrivalLane="C2D2_0" arrivalPos="492.80" arrivalSpeed="14.73" duration="135.00" routeLength="1495.00" waitingTime="2.00" waitingCount="1" stopTime="0.00" timeLoss="35.61" rerouteNo="0" devices="tripinfo_f_0_0.8 emissions_f_0_0.8" vType="DEFAULT_VEHTYPE" speedFactor="1.09" vaporized="">
        <emissions CO_abs="5407.934044" CO2_abs="373113.263594" HC_abs="32.959920" PMx_abs="6.074490" NOx_abs="147.658506" fuel_abs="119006.429709" electricity_abs="0"/>
    </tripinfo>
    <tripinfo id="f_0_1.1" depart="42.00" departLane="C4C3_0" departPos="5.10" departSpeed="0.00" departDelay="0.00" arrival="186.00" arrivalLane="C2C1_0" arrivalPos="492.80" arrivalSpeed="11.54" duration="144.00" routeLength="1495.00" waitingTime="5.00" waitingCount="1" stopTime="0.00" timeLoss="17.85" rerouteNo="0" devices="tripinfo_f_0_1.1 emissions_f_0_1.1" vType="DEFAULT_VEHTYPE" speedFactor="0.86" vaporized="">
        <emissions CO_abs="4443.707784" CO2_abs="331021.163675" HC_abs="27.712200" PMx_abs="4.454130" NOx_abs="125.257712" fuel_abs="105581.800613" electricity_abs="0"/>
    </tripinfo>
    <tripinfo id="f_0_1.2" depart="45.00" departLane="C4C3_0" departPos="5.10" departSpeed="0.00" departDelay="0.00" arrival="188.00" arrivalLane="C2C1_0" arrivalPos="492.80" arrivalSpeed="14.23" duration="143.00" routeLength="1495.00" waitingTime="3.00" waitingCount="1" stopTime="0.00" timeLoss="37.28" rerouteNo="0" devices="tripinfo_f_0_1.2 emissions_f_0_1.2" vType="DEFAULT_VEHTYPE" speedFactor="1.03" vaporized="">
        <emissions CO_abs="5714.051973" CO2_abs="389615.307116" HC_abs="35.054929" PMx_abs="6.296473" NOx_abs="154.898278" fuel_abs="124269.928471" electricity_abs="0"/>
    </tripinfo>
    <tripinfo id="f_0_2.2" depart="67.00" departLane="E2D2_0" departPos="5.10" departSpeed="0.00" departDelay="0.00" arrival="192.00" arrivalLane="C2B2_0" arrivalPos="492.80" arrivalSpeed="11.67" duration="125.00" routeLength="1495.00" waitingTime="0.00" waitingCount="0" stopTime="0.00" timeLoss="8.54" rerouteNo="0" devices="tripinfo_f_0_2.2 emissions_f_0_2.2" vType="DEFAULT_VEHTYPE" speedFactor="0.93" vaporized="">
        <emissions CO_abs="2370.688874" CO2_abs="289334.874243" HC_abs="16.852612" PMx_abs="3.287420" NOx_abs="103.432047" fuel_abs="92285.466445" electricity_abs="0"/>
    </tripinfo>
    <tripinfo id="f_0_1.3" depart="60.00" departLane="C4C3_0" departPos="5.10" departSpeed="0.00" departDelay="0.00" arrival="197.00" arrivalLane="C2C1_0" arrivalPos="492.80" arrivalSpeed="13.22" duration="137.00" routeLength="1495.00" waitingTime="11.00" waitingCount="2" stopTime="0.00" timeLoss="28.30" rerouteNo="0" devices="tripinfo_f_0_1.3 emissions_f_0_1.3" vType="DEFAULT_VEHTYPE" speedFactor="0.99" vaporized="">
        <emissions CO_abs="5728.658057" CO2_abs="369398.247114" HC_abs="34.335804" PMx_abs="5.744363" NOx_abs="143.740519" fuel_abs="117822.110526" electricity_abs="0"/>
    </tripinfo>
    <tripinfo id="f_0_1.4" depart="85.00" departLane="C4C3_0" departPos="5.10" departSpeed="0.00" departDelay="0.00" arrival="199.00" arrivalLane="C2C1_0" arrivalPos="492.80" arrivalSpeed="15.49" duration="114.00" routeLength="1495.00" waitingTime="1.00" waitingCount="1" stopTime="0.00" timeLoss="20.39" rerouteNo="0" devices="tripinfo_f_0_1.4 emissions_f_0_1.4" vType="DEFAULT_VEHTYPE" speedFactor="1.16" vaporized="">
        <emissions CO_abs="3949.329462" CO2_abs="351474.765299" HC_abs="25.253668" PMx_abs="5.259252" NOx_abs="132.658248" fuel_abs="112104.598291" electricity_abs="0"/>
    </tripinfo>
    <tripinfo id="f_0_3.0" depart="85.00" departLane="C0C1_0" departPos="5.10" departSpeed="0.00" departDelay="0.00" arrival="199.00" arrivalLane="C2C3_0" arrivalPos="492.80" arrivalSpeed="13.81" duration="114.00" routeLength="1495.00" waitingTime="0.00" waitingCount="0" stopTime="0.00" timeLoss="8.05" rerouteNo="0" devices="tripinfo_f_0_3.0 emissions_f_0_3.0" vType="DEFAULT_VEHTYPE" speedFactor="1.02" vaporized="">
        <emissions CO_abs="2357.438650" CO2_abs="283508.388716" HC_abs="16.495019" PMx_abs="3.679371" NOx_abs="103.348719" fuel_abs="90426.556743" electricity_abs="0"/>
    </tripinfo>
    <tripinfo id="f_0_2.3" depart="97.00" departLane="E2D2_0" departPos="5.10" departSpeed="0.00" departDelay="0.00" arrival="202.00" arrivalLane="C2B2_0" arrivalPos="492.80" arrivalSpeed="15.62" duration="105.00" routeLength="1495.00" waitingTime="0.00" waitingCount="0" stopTime="0.00" timeLoss="9.00" rerouteNo="0" devices="tripinfo_f_0_2.3 emissions_f_0_2.3" vType="DEFAULT_VEHTYPE" speedFactor="1.13" vaporized="">
        <emissions CO_abs="2728.505424" CO2_abs="314978.340046" HC_abs="18.904800" PMx_abs="4.530561" NOx_abs="116.922482" fuel_abs="100463.621195" electricity_abs="0"/>
    </tripinfo>
    <tripinfo id="f_0_0.9" depart="71.00" departLane="A2B2_0" departPos="5.10" departSpeed="0.00" departDelay="0.00" arrival="213.00" arrivalLane="C2D2_0" arrivalPos="492.80" arrivalSpeed="11.86" duration="142.00" routeLength="1495.00" waitingTime="3.00" waitingCount="1" stopTime="0.00" timeLoss="18.86" rerouteNo="0" devices="tripinfo_f_0_0.9 emissions_f_0_0.9" vType="DEFAULT_VEHTYPE" speedFactor="0.88" vaporized="">
        <emissions CO_abs="4443.200744" CO2_abs="331312.634564" HC_abs="27.563324" PMx_abs="4.520331" NOx_abs="125.361129" fuel_abs="105674.716476" electricity_abs="0"/>
    </tripinfo>
    <tripinfo id="f_0_0.10" depart="74.00" departLane="A2B2_0" departPos="5.10" departSpeed="0.00" departDelay="2.00" arrival="215.00" arrivalLane="C2D2_0" arrivalPos="492.80" arrivalSpeed="11.85" duration="141.00" routeLength="1495.00" waitingTime="2.00" waitingCount="1" stopTime="0.00" timeLoss="25.85" rerouteNo="0" devices="tripinfo_f_0_0.10 emissions_f_0_0.10" vType="DEFAULT_VEHTYPE" speedFactor="0.94" vaporized="">
        <emissions CO_abs="5374.150665" CO2_abs="372020.391010" HC_abs="33.056129" PMx_abs="5.949723" NOx_abs="147.306267" fuel_abs="118657.958988" electricity_abs="0"/>
    </tripinfo>
    <tripinfo id="f_0_1.5" depart="88.00" departLane="C4C3_0" departPos="5.10" departSpeed="0.00" departDelay="1.00" arrival="215.00" arrivalLane="C2C1_0" arrivalPos="492.80" arrivalSpeed="13.99" duration="127.00" routeLength="1495.00" waitingTime="6.00" waitingCount="1" stopTime="0.00" timeLoss="19.90" rerouteNo="0" devices="tripinfo_f_0_1.5 emissions_f_0_1.5" vType="DEFAULT_VEHTYPE" speedFactor="1.01" vaporized="">
        <emissions CO_abs="4330.439387" CO2_abs="335094.876820" HC_abs="26.679041" PMx_abs="4.905811" NOx_abs="127.276605" fuel_abs="106880.605669" electricity_abs="0"/>
    </tripinfo>
    <tripinfo id="f_0_3.1" depart="88.00" departLane="C0C1_0" departPos="5.10" departSpeed="0.00" departDelay="1.00" arrival="216.00" arrivalLane="C2C3_0" arrivalPos="492.80" arrivalSpeed="12.50" duration="128.00" routeLength="1495.00" waitingTime="3.00" waitingCount="1" stopTime="0.00" timeLoss="16.86" rerouteNo="0" devices="tripinfo_f_0_3.1 emissions_f_0_3.1" vType="DEFAULT_VEHTYPE" speedFactor="0.97" vaporized="">
        <emissions CO_abs="3823.078385" CO2_abs="322314.142417" HC_abs="24.034361" PMx_abs="4.427366" NOx_abs="120.495178" fuel_abs="102804.235516" electricity_abs="0"/>
    </tripinfo>
    <tripinfo id="f_0_1.6" depart="91.00" departLane="C4C3_0" departPos="5.10" departSpeed="0.00" departDelay="1.00" arrival="222.00" arrivalLane="C2C1_0" arrivalPos="492.80" arrivalSpeed="11.69" duration="131.00" routeLength="1495.00" waitingTime="0.00" waitingCount="0" stopTime="0.00" timeLoss="9.99" rerouteNo="0" devices="tripinfo_f_0_1.6 emissions_f_0_1.6" vType="DEFAULT_VEHTYPE" speedFactor="0.89" vaporized="">
        <emissions CO_abs="3002.575516" CO2_abs="284440.869554" HC_abs="19.984004" PMx_abs="3.741308" NOx_abs="106.536955" fuel_abs="90724.254972" electricity_abs="0"/>
    </tripinfo>
    <tripinfo id="f_0_1.7" depart="96.00" departLane="C4C3_0" departPos="5.10" departSpeed="0.00" departDelay="0.00" arrival="224.00" arrivalLane="C2C1_0" arrivalPos="492.80" arrivalSpeed="12.41" duration="128.00" routeLength="1495.00" waitingTime="0.00" waitingCount="0" stopTime="0.00" timeLoss="14.34" rerouteNo="0" devices="tripinfo_f_0_1.7 emissions_f_0_1.7" vType="DEFAULT_VEHTYPE" speedFactor="0.95" vaporized="">
        <emissions CO_abs="3491.521431" CO2_abs="325446.213966" HC_abs="23.183884" PMx_abs="4.615638" NOx_abs="124.076991" fuel_abs="103802.824534" electricity_abs="0"/>
    </tripinfo>
    <tripinfo id="f_0_3.2" depart="95.00" departLane="C0C1_0" departPos="5.10" departSpeed="0.00" departDelay="0.00" arrival="228.00" arrivalLane="C2C3_0" arrivalPos="492.80" arrivalSpeed="11.32" duration="133.00" routeLength="1495.00" waitingTime="0.00" waitingCount="0" stopTime="0.00" timeLoss="8.94" rerouteNo="0" devices="tripinfo_f_0_3.2 emissions_f_0_3.2" vType="DEFAULT_VEHTYPE" speedFactor="0.87" vaporized="">
        <emissions CO_abs="2743.622439" CO2_abs="299229.546097" HC_abs="19.051957" PMx_abs="3.411157" NOx_abs="108.300915" fuel_abs="95441.570977" electricity_abs="0"/>
    </tripinfo>
    <tripinfo id="f_0_0.11" depart="81.00" departLane="A2B2_0" departPos="5.10" departSpeed="0.00" departDelay="0.00" arrival="232.00" arrivalLane="C2D2_0" arrivalPos="492.80" arrivalSpeed="12.04" duration="151.00" routeLength="1495.00" waitingTime="15.00" waitingCount="2" stopTime="0.00" timeLoss="35.30" rerouteNo="0" devices="tripinfo_f_0_0.11 emissions_f_0_0.11" vType="DEFAULT_VEHTYPE" speedFactor="0.94" vaporized="">
        <emissions CO_abs="6690.657612" CO2_abs="373288.044827" HC_abs="38.431257" PMx_abs="5.597840" NOx_abs="143.766002" fuel_abs="119063.592423" electricity_abs="0"/>
    </tripinfo>
    <tripinfo id="f_0_0.12" depart="95.00" departLane="A2B2_0" departPos="5.10" departSpeed="0.00" departDelay="0.00" arrival="240.00" arrivalLane="C2D2_0" arrivalPos="492.80" arrivalSpeed="11.02" duration="145.00" routeLength="1495.00" waitingTime="0.00" waitingCount="0" stopTime="0.00" timeLoss="13.88" rerouteNo="0" devices="tripinfo_f_0_0.12 emissions_f_0_0.12" vType="DEFAULT_VEHTYPE" speedFactor="0.83" vaporized="">
        <emissions CO_abs="3948.431391" CO2_abs="322581.847397" HC_abs="25.284144" PMx_abs="4.093985" NOx_abs="120.696707" fuel_abs="102890.044646" electricity_abs="0"/>
    </tripinfo>
    <tripinfo id="f_0_0.13" depart="98.00" departLane="A2B2_0" departPos="5.10" departSpeed="0.00" departDelay="2.00" arrival="250.00" arrivalLane="C2D2_0" arrivalPos="492.80" arrivalSpeed="12.53" duration="152.00" routeLength="1495.00" waitingTime="8.00" waitingCount="1" stopTime="0.00" timeLoss="33.82" rerouteNo="0" devices="tripinfo_f_0_0.13 emissions_f_0_0.13" vType="DEFAULT_VEHTYPE" speedFactor="0.92" vaporized="">
        <emissions CO_abs="6052.756198" CO2_abs="378003.924042" HC_abs="35.997521" PMx_abs="5.709897" NOx_abs="147.240529" fuel_abs="120567.204174" electricity_abs="0"/>
    </tripinfo>
    <tripinfo id="f_1_2.0" depart="153.00" departLane="E2D2_0" departPos="5.10" departSpeed="0.00" departDelay="0.00" arrival="254.00" arrivalLane="C2B2_0" arrivalPos="492.80" arrivalSpeed="15.99" duration="101.00" routeLength="1495.00" waitingTime="0.00" waitingCount="0" stopTime="0.00" timeLoss="9.25" rerouteNo="0" devices="tripinfo_f_1_2.0 emissions_f_1_2.0" vType="DEFAULT_VEHTYPE" speedFactor="1.18" vaporized="">
        <emissions CO_abs="2609.768700" CO2_abs="307774.492256" HC_abs="17.904814" PMx_abs="4.384821" NOx_abs="113.145727" fuel_abs="98165.927703" electricity_abs="0"/>
    </tripinfo>
    <tripinfo id="f_1_0.0" depart="155.00" departLane="A2B2_0" departPos="5.10" departSpeed="0.00" departDelay="0.00" arrival="256.00" arrivalLane="C2D2_0" arrivalPos="492.80" arrivalSpeed="15.74" duration="101.00" routeLength="1495.00" waitingTime="0.00" waitingCount="0" stopTime="0.00" timeLoss="7.45" rerouteNo="0" devices="tripinfo_f_1_0.0 emissions_f_1_0.0" vType="DEFAULT_VEHTYPE" speedFactor="1.15" vaporized="">
        <emissions CO_abs="2247.014864" CO2_abs="285414.623863" HC_abs="15.969822" PMx_abs="3.961237" NOx_abs="103.957059" fuel_abs="91034.219568" electricity_abs="0"/>
    </tripinfo>
    <tripinfo id="f_1_2.1" depart="163.00" departLane="E2D2_0" departPos="5.10" departSpeed="0.00" departDelay="0.00" arrival="280.00" arrivalLane="C2B2_0" arrivalPos="492.80" arrivalSpeed="13.11" duration="117.00" routeLength="1495.00" waitingTime="0.00" waitingCount="0" stopTime="0.00" timeLoss="8.23" rerouteNo="0" devices="tripinfo_f_1_2.1 emissions_f_1_2.1" vType="DEFAULT_VEHTYPE" speedFactor="0.99" vaporized="">
        <emissions CO_abs="2548.073240" CO2_abs="284368.818921" HC_abs="17.569051" PMx_abs="3.816692" NOx_abs="105.114029" fuel_abs="90700.962305" electricity_abs="0"/>
    </tripinfo>
    <tripinfo id="f_1_1.0" depart="175.00" departLane="C4C3_0" departPos="5.10" departSpeed="0.00" departDelay="0.00" arrival="288.00" arrivalLane="C2C1_0" arrivalPos="492.80" arrivalSpeed="13.31" duration="113.00" routeLength="1495.00" waitingTime="0.00" waitingCount="0" stopTime="0.00" timeLoss="8.16" rerouteNo="0" devices="tripinfo_f_1_1.0 emissions_f_1_1.0" vType="DEFAULT_VEHTYPE" speedFactor="1.03" vaporized="">
        <emissions CO_abs="2461.317101" CO2_abs="287092.545326" HC_abs="17.246183" PMx_abs="3.913120" NOx_abs="106.697238" fuel_abs="91569.548206" electricity_abs="0"/>
    </tripinfo>
    <tripinfo id="f_1_3.0" depart="152.00" departLane="C0C1_0" departPos="5.10" departSpeed="0.00" departDelay="0.00" arrival="291.00" arrivalLane="C2C3_0" arrivalPos="492.80" arrivalSpeed="11.66" duration="139.00" routeLength="1495.00" waitingTime="9.00" waitingCount="1" stopTime="0.00" timeLoss="22.73" rerouteNo="0" devices="tripinfo_f_1_3.0 emissions_f_1_3.0" vType="DEFAULT_VEHTYPE" speedFactor="0.93" vaporized="">
        <emissions CO_abs="4991.513223" CO2_abs="339654.324675" HC_abs="30.104669" PMx_abs="4.951774" NOx_abs="129.887909" fuel_abs="108335.300010" electricity_abs="0"/>
    </tripinfo>
    <tripinfo id="f_1_3.1" depart="160.00" departLane="C0C1_0" departPos="5.10" departSpeed="0.00" departDelay="0.00" arrival="292.00" arrivalLane="C2C3_0" arrivalPos="492.80" arrivalSpeed="12.92" duration="132.00" routeLength="1495.00" waitingTime="7.00" waitingCount="1" stopTime="0.00" timeLoss="24.86" rerouteNo="0" devices="tripinfo_f_1_3.1 emissions_f_1_3.1" vType="DEFAULT_VEHTYPE" speedFactor="1.01" vaporized="">
        <emissions CO_abs="5093.586933" CO2_abs="346091.553222" HC_abs="30.834004" PMx_abs="5.379640" NOx_abs="134.500255" fuel_abs="110388.105191" electricity_abs="0"/>
    </tripinfo>
    <tripinfo id="f_1_3.2" depart="163.00" departLane="C0C1_0" departPos="5.10" departSpeed="0.00" departDelay="1.00" arrival="294.00" arrivalLane="C2C3_0" arrivalPos="492.80" arrivalSpeed="15.17" duration="131.00" routeLength="1495.00" waitingTime="7.00" waitingCount="1" stopTime="0.00" timeLoss="38.59" rerouteNo="0" devices="tripinfo_f_1_3.2 emissions_f_1_3.2" vType="DEFAULT_VEHTYPE" speedFactor="1.17" vaporized="">
        <emissions CO_abs="5735.970626" CO2_abs="388307.776936" HC_abs="34.514887" PMx_abs="6.318423" NOx_abs="152.175043" fuel_abs="123852.919817" electricity_abs="0"/>
    </tripinfo>
    <tripinfo id="f_1_3.3" depart="166.00" departLane="C0C1_0" departPos="5.10" departSpeed="0.00" departDelay="3.00" arrival="296.00" arrivalLane="C2C3_0" arrivalPos="492.80" arrivalSpeed="14.09" duration="130.00" routeLength="1495.00" waitingTime="6.00" waitingCount="1" stopTime="0.00" timeLoss="23.71" rerouteNo="0" devices="tripinfo_f_1_3.3 emissions_f_1_3.3" vType="DEFAULT_VEHTYPE" speedFactor="1.02" vaporized="">
        <emissions CO_abs="5000.321025" CO2_abs="359901.956226" HC_abs="30.377311" PMx_abs="5.509485" NOx_abs="139.043466" fuel_abs="114792.899465" electricity_abs="0"/>
    </tripinfo>
    <tripinfo id="f_1_3.4" depart="169.00" departLane="C0C1_0" departPos="5.10" departSpeed="0.00" departDelay="1.00" arrival="297.00" arrivalLane="C2C3_0" arrivalPos="492.80" arrivalSpeed="14.90" duration="128.00" routeLength="1495.00" waitingTime="6.00" waitingCount="1" stopTime="0.00" timeLoss="30.24" rerouteNo="0" devices="tripinfo_f_1_3.4 emissions_f_1_3.4" vType="DEFAULT_VEHTYPE" speedFactor="1.10" vaporized="">
        <emissions CO_abs="5820.720975" CO2_abs="385306.362649" HC_abs="35.275149" PMx_abs="6.597346" NOx_abs="154.195056" fuel_abs="122895.298892" electricity_abs="0"/>
    </tripinfo>
    <tripinfo id="f_1_3.5" depart="178.00" departLane="C0C1_0" departPos="5.10" departSpeed="0.00" departDelay="0.00" arrival="299.00" arrivalLane="C2C3_0" arrivalPos="492.80" arrivalSpeed="14.79" duration="121.00" routeLength="1495.00" waitingTime="1.00" waitingCount="1" stopTime="0.00" timeLoss="21.65" rerouteNo="0" devices="tripinfo_f_1_3.5 emissions_f_1_3.5" vType="DEFAULT_VEHTYPE" speedFactor="1.09" vaporized="">
        <emissions CO_abs="4733.923140" CO2_abs="365360.561548" HC_abs="29.716768" PMx_abs="6.028534" NOx_abs="143.986888" fuel_abs="116533.281473" electricity_abs="0"/>
    </tripinfo>
    <tripinfo id="f_1_1.1" depart="178.00" departLane="C4C3_0" departPos="5.10" departSpeed="0.00" departDelay="1.00" arrival="300.00" arrivalLane="C2C1_0" arrivalPos="492.80" arrivalSpeed="12.42" duration="122.00" routeLength="1495.00" waitingTime="0.00" waitingCount="0" stopTime="0.00" timeLoss="9.13" rerouteNo="0" devices="tripinfo_f_1_1.1 emissions_f_1_1.1" vType="DEFAULT_VEHTYPE" speedFactor="0.96" vaporized="">
        <emissions CO_abs="2565.180965" CO2_abs="299228.108681" HC_abs="18.133716" PMx_abs="3.736926" NOx_abs="109.522587" fuel_abs="95440.651192" electricity_abs="0"/>
    </tripinfo>
    <tripinfo id="f_1_1.2" depart="181.00" departLane="C4C3_0" departPos="5.10" departSpeed="0.00" departDelay="3.00" arrival="302.00" arrivalLane="C2C1_0" arrivalPos="492.80" arrivalSpeed="14.18" duration="121.00" routeLength="1495.00" waitingTime="0.00" waitingCount="0" stopTime="0.00" timeLoss="16.54" rerouteNo="0" devices="tripinfo_f_1_1.2 emissions_f_1_1.2" vType="DEFAULT_VEHTYPE" speedFactor="1.04" vaporized="">
        <emissions CO_abs="3386.334059" CO2_abs="321055.385358" HC_abs="22.527164" PMx_abs="4.810130" NOx_abs="123.346577" fuel_abs="102402.042398" electricity_abs="0"/>
    </tripinfo>
    <tripinfo id="f_1_2.2" depart="166.00" departLane="E2D2_0" departPos="5.10" departSpeed="0.00" departDelay="2.00" arrival="309.00" arrivalLane="C2B2_0" arrivalPos="492.80" arrivalSpeed="12.41" duration="143.00" routeLength="1495.00" waitingTime="18.00" waitingCount="1" stopTime="0.00" timeLoss="32.26" rerouteNo="0" devices="tripinfo_f_1_2.2 emissions_f_1_2.2" vType="DEFAULT_VEHTYPE" speedFactor="0.97" vaporized="">
        <emissions CO_abs="6330.907893" CO2_abs="372527.390135" HC_abs="36.578783" PMx_abs="5.402801" NOx_abs="141.566065" fuel_abs="118820.972481" electricity_abs="0"/>
    </tripinfo>
    <tripinfo id="f_1_2.3" depart="169.00" departLane="E2D2_0" departPos="5.10" departSpeed="0.00" departDelay="1.00" arrival="311.00" arrivalLane="C2B2_0" arrivalPos="492.80" arrivalSpeed="16.25" duration="142.00" routeLength="1495.00" waitingTime="17.00" waitingCount="1" stopTime="0.00" timeLoss="50.14" rerouteNo="0" devices="tripinfo_f_1_2.3 emissions_f_1_2.3" vType="DEFAULT_VEHTYPE" speedFactor="1.18" vaporized="">
        <emissions CO_abs="7198.895519" CO2_abs="409229.765799" HC_abs="41.768240" PMx_abs="6.766427" NOx_abs="162.036761" fuel_abs="130526.680525" electricity_abs="0"/>
    </tripinfo>
    <tripinfo id="f_1_2.4" depart="172.00" departLane="E2D2_0" departPos="5.10" departSpeed="0.00" departDelay="2.00" arrival="316.00" arrivalLane="C2B2_0" arrivalPos="492.80" arrivalSpeed="11.64" duration="144.00" routeLength="1495.00" waitingTime="5.00" waitingCount="2" stopTime="0.00" timeLoss="24.05" rerouteNo="0" devices="tripinfo_f_1_2.4 emissions_f_1_2.4" vType="DEFAULT_VEHTYPE" speedFactor="0.90" vaporized="">
        <emissions CO_abs="5076.448379" CO2_abs="359528.037212" HC_abs="31.062421" PMx_abs="4.978362" NOx_abs="136.512061" fuel_abs="114674.295970" electricity_abs="0"/>
    </tripinfo>
    <tripinfo id="f_1_2.5" depart="177.00" departLane="E2D2_0" departPos="5.10" departSpeed="0.00" departDelay="0.00" arrival="318.00" arrivalLane="C2B2_0" arrivalPos="492.80" arrivalSpeed="14.71" duration="141.00" routeLength="1495.00" waitingTime="5.00" waitingCount="2" stopTime="0.00" timeLoss="41.63" rerouteNo="0" devices="tripinfo_f_1_2.5 emissions_f_1_2.5" vType="DEFAULT_VEHTYPE" speedFactor="1.09" vaporized="">
        <emissions CO_abs="5897.309322" CO2_abs="393316.154816" HC_abs="35.414360" PMx_abs="6.213658" NOx_abs="154.096341" fuel_abs="125450.596758" electricity_abs="0"/>
    </tripinfo>
    <tripinfo id="f_1_2.6" depart="180.00" departLane="E2D2_0" departPos="5.10" departSpeed="0.00" departDelay="2.00" arrival="319.00" arrivalLane="C2B2_0" arrivalPos="492.80" arrivalSpeed="14.24" duration="139.00" routeLength="1495.00" waitingTime="2.00" waitingCount="2" stopTime="0.00" timeLoss="35.75" rerouteNo="0" devices="tripinfo_f_1_2.6 emissions_f_1_2.6" vType="DEFAULT_VEHTYPE" speedFactor="1.04" vaporized="">
        <emissions CO_abs="6060.714222" CO2_abs="407727.110121" HC_abs="36.679008" PMx_abs="6.625151" NOx_abs="161.094324" fuel_abs="130046.818900" electricity_abs="0"/>
    </tripinfo>
    <tripinfo id="f_1_2.7" depart="183.00" departLane="E2D2_0" departPos="5.10" departSpeed="0.00" departDelay="0.00" arrival="321.00" arrivalLane="C2B2_0" arrivalPos="492.80" arrivalSpeed="13.44" duration="138.00" routeLength="1495.00" waitingTime="1.00" waitingCount="1" stopTime="0.00" timeLoss="29.77" rerouteNo="0" devices="tripinfo_f_1_2.7 emissions_f_1_2.7" vType="DEFAULT_VEHTYPE" speedFactor="1.00" vaporized="">
        <emissions CO_abs="5835.623959" CO2_abs="401672.076690" HC_abs="35.676059" PMx_abs="6.693309" NOx_abs="160.399054" fuel_abs="128115.227175" electricity_abs="0"/>
    </tripinfo>
    <tripinfo id="f_1_2.8" depart="186.00" departLane="E2D2_0" departPos="5.10" departSpeed="0.00" departDelay="1.00" arrival="323.00" arrivalLane="C2B2_0" arrivalPos="492.80" arrivalSpeed="12.39" duration="137.00" routeLength="1495.00" waitingTime="0.00" waitingCount="0" stopTime="0.00" timeLoss="17.42" rerouteNo="0" devices="tripinfo_f_1_2.8 emissions_f_1_2.8" vType="DEFAULT_VEHTYPE" speedFactor="0.90" vaporized="">