<?xml version="1.0" encoding="UTF-8"?>

<!-- generated on 2024-08-22 12:40:31 by Eclipse SUMO sumo Version 1.17.0
<configuration xmlns:xsi="http://www.w3.org/2001/XMLSchema-instance" xsi:noNamespaceSchemaLocation="http://sumo.dlr.de/xsd/sumoConfiguration.xsd">

    <input>
        <net-file value="single_actuated.net.xml"/>
        <route-files value="single_4.rou.xml"/>
    </input>

    <output>
        <tripinfo-output value="emissions_test\z_actuated_4_emissions_tripinfo_single.xml"/>
    </output>

    <processing>
        <time-to-teleport value="-1"/>
    </processing>

    <emissions>
        <device.emissions.probability value="1.0"/>
    </emissions>

    <traci_server>
        <remote-port value="57291"/>
    </traci_server>

</configuration>
-->

<tripinfos xmlns:xsi="http://www.w3.org/2001/XMLSchema-instance" xsi:noNamespaceSchemaLocation="http://sumo.dlr.de/xsd/tripinfo_file.xsd">
    <tripinfo id="f_0_0.0" depart="2.00" departLane="A2B2_0" departPos="5.10" departSpeed="0.00" departDelay="0.00" arrival="111.00" arrivalLane="C2D2_0" arrivalPos="492.80" arrivalSpeed="13.67" duration="109.00" routeLength="1495.00" waitingTime="0.00" waitingCount="0" stopTime="0.00" timeLoss="6.91" rerouteNo="0" devices="tripinfo_f_0_0.0 emissions_f_0_0.0" vType="DEFAULT_VEHTYPE" speedFactor="1.06" vaporized="">
        <emissions CO_abs="2229.868948" CO2_abs="286601.830503" HC_abs="16.094947" PMx_abs="3.841762" NOx_abs="105.101338" fuel_abs="91413.008285" electricity_abs="0"/>
    </tripinfo>
    <tripinfo id="f_0_0.1" depart="5.00" departLane="A2B2_0" departPos="5.10" departSpeed="0.00" departDelay="0.00" arrival="130.00" arrivalLane="C2D2_0" arrivalPos="492.80" arrivalSpeed="12.24" duration="125.00" routeLength="1495.00" waitingTime="0.00" waitingCount="0" stopTime="0.00" timeLoss="10.02" rerouteNo="0" devices="tripinfo_f_0_0.1 emissions_f_0_0.1" vType="DEFAULT_VEHTYPE" speedFactor="0.94" vaporized="">
        <emissions CO_abs="2769.092393" CO2_abs="303736.948791" HC_abs="19.069168" PMx_abs="3.816749" NOx_abs="111.499624" fuel_abs="96878.831161" electricity_abs="0"/>
    </tripinfo>
    <tripinfo id="f_0_0.2" depart="8.00" departLane="A2B2_0" departPos="5.10" departSpeed="0.00" departDelay="1.00" arrival="132.00" arrivalLane="C2D2_0" arrivalPos="492.80" arrivalSpeed="13.81" duration="124.00" routeLength="1495.00" waitingTime="0.00" waitingCount="0" stopTime="0.00" timeLoss="16.87" rerouteNo="0" devices="tripinfo_f_0_0.2 emissions_f_0_0.2" vType="DEFAULT_VEHTYPE" speedFactor="1.01" vaporized="">
        <emissions CO_abs="3470.782193" CO2_abs="330836.907591" HC_abs="23.133311" PMx_abs="4.820651" NOx_abs="126.340749" fuel_abs="105522.041797" electricity_abs="0"/>
    </tripinfo>
    <tripinfo id="f_0_0.3" depart="11.00" departLane="A2B2_0" departPos="5.10" departSpeed="0.00" departDelay="1.00" arrival="134.00" arrivalLane="C2D2_0" arrivalPos="492.80" arrivalSpeed="14.38" duration="123.00" routeLength="1495.00" waitingTime="0.00" waitingCount="0" stopTime="0.00" timeLoss="22.66" rerouteNo="0" devices="tripinfo_f_0_0.3 emissions_f_0_0.3" vType="DEFAULT_VEHTYPE" speedFactor="1.08" vaporized="">
        <emissions CO_abs="3969.002372" CO2_abs="351752.498823" HC_abs="25.752386" PMx_abs="5.448397" NOx_abs="136.578972" fuel_abs="112192.938567" electricity_abs="0"/>
    </tripinfo>
    <tripinfo id="f_0_0.4" depart="16.00" departLane="A2B2_0" departPos="5.10" departSpeed="0.00" departDelay="0.00" arrival="135.00" arrivalLane="C2D2_0" arrivalPos="492.80" arrivalSpeed="13.27" duration="119.00" routeLength="1495.00" waitingTime="0.00" waitingCount="0" stopTime="0.00" timeLoss="14.38" rerouteNo="0" devices="tripinfo_f_0_0.4 emissions_f_0_0.4" vType="DEFAULT_VEHTYPE" speedFactor="1.03" vaporized="">
        <emissions CO_abs="3322.607103" CO2_abs="324368.953323" HC_abs="22.058489" PMx_abs="4.732495" NOx_abs="123.105383" fuel_abs="103458.998094" electricity_abs="0"/>
    </tripinfo>
    <tripinfo id="f_0_1.0" depart="24.00" departLane="C4C3_0" departPos="5.10" departSpeed="0.00" departDelay="0.00" arrival="138.00" arrivalLane="C2C1_0" arrivalPos="492.80" arrivalSpeed="13.95" duration="114.00" routeLength="1495.00" waitingTime="0.00" waitingCount="0" stopTime="0.00" timeLoss="10.17" rerouteNo="0" devices="tripinfo_f_0_1.0 emissions_f_0_1.0" vType="DEFAULT_VEHTYPE" speedFactor="1.05" vaporized="">
        <emissions CO_abs="3009.291927" CO2_abs="324514.880584" HC_abs="20.472966" PMx_abs="4.598958" NOx_abs="121.656346" fuel_abs="103505.516076" electricity_abs="0"/>
    </tripinfo>
    <tripinfo id="f_0_0.5" depart="20.00" departLane="A2B2_0" departPos="5.10" departSpeed="0.00" departDelay="0.00" arrival="160.00" arrivalLane="C2D2_0" arrivalPos="492.80" arrivalSpeed="11.30" duration="140.00" routeLength="1495.00" waitingTime="0.00" waitingCount="0" stopTime="0.00" timeLoss="9.57" rerouteNo="0" devices="tripinfo_f_0_0.5 emissions_f_0_0.5" vType="DEFAULT_VEHTYPE" speedFactor="0.83" vaporized="">
        <emissions CO_abs="3259.781954" CO2_abs="302809.335978" HC_abs="21.638186" PMx_abs="3.626938" NOx_abs="111.383437" fuel_abs="96583.454801" electricity_abs="0"/>
    </tripinfo>
    <tripinfo id="f_0_0.6" depart="25.00" departLane="A2B2_0" departPos="5.10" departSpeed="0.00" departDelay="0.00" arrival="161.00" arrivalLane="C2D2_0" arrivalPos="492.80" arrivalSpeed="11.73" duration="136.00" routeLength="1495.00" waitingTime="0.00" waitingCount="0" stopTime="0.00" timeLoss="14.32" rerouteNo="0" devices="tripinfo_f_0_0.6 emissions_f_0_0.6" vType="DEFAULT_VEHTYPE" speedFactor="0.89" vaporized="">
        <emissions CO_abs="3632.324436" CO2_abs="316030.626001" HC_abs="23.630281" PMx_abs="4.323584" NOx_abs="119.865426" fuel_abs="100800.000104" electricity_abs="0"/>
    </tripinfo>
    <tripinfo id="f_0_0.7" depart="29.00" departLane="A2B2_0" departPos="5.10" departSpeed="0.00" departDelay="0.00" arrival="163.00" arrivalLane="C2D2_0" arrivalPos="492.80" arrivalSpeed="13.90" duration="134.00" routeLength="1495.00" waitingTime="0.00" waitingCount="0" stopTime="0.00" timeLoss="34.81" rerouteNo="0" devices="tripinfo_f_0_0.7 emissions_f_0_0.7" vType="DEFAULT_VEHTYPE" speedFactor="1.09" vaporized="">
        <emissions CO_abs="4484.385052" CO2_abs="356541.275208" HC_abs="28.578539" PMx_abs="5.613649" NOx_abs="140.577283" fuel_abs="113720.473361" electricity_abs="0"/>
    </tripinfo>
    <tripinfo id="f_0_2.0" depart="40.00" departLane="E2D2_0" departPos="5.10" departSpeed="0.00" departDelay="0.00" arrival="164.00" arrivalLane="C2B2_0" arrivalPos="492.80" arrivalSpeed="11.89" duration="124.00" routeLength="1495.00" waitingTime="0.00" waitingCount="0" stopTime="0.00" timeLoss="8.33" rerouteNo="0" devices="tripinfo_f_0_2.0 emissions_f_0_2.0" vType="DEFAULT_VEHTYPE" speedFactor="0.94" vaporized="">
        <emissions CO_abs="2413.258330" CO2_abs="288965.498343" HC_abs="16.915795" PMx_abs="3.402685" NOx_abs="103.976577" fuel_abs="92167.532340" electricity_abs="0"/>
    </tripinfo>
    <tripinfo id="f_0_0.8" depart="32.00" departLane="A2B2_0" departPos="5.10" departSpeed="0.00" departDelay="0.00" arrival="165.00" arrivalLane="C2D2_0" arrivalPos="492.80" arrivalSpeed="15.05" duration="133.00" routeLength="1495.00" waitingTime="0.00" waitingCount="0" stopTime="0.00" timeLoss="36.25" rerouteNo="0" devices="tripinfo_f_0_0.8 emissions_f_0_0.8" vType="DEFAULT_VEHTYPE" speedFactor="1.12" vaporized="">
        <emissions CO_abs="4798.656696" CO2_abs="377199.072832" HC_abs="30.477880" PMx_abs="6.126788" NOx_abs="149.516551" fuel_abs="120309.219931" electricity_abs="0"/>
    </tripinfo>
    <tripinfo id="f_0_2.1" depart="43.00" departLane="E2D2_0" departPos="5.10" departSpeed="0.00" departDelay="1.00" arrival="165.00" arrivalLane="C2B2_0" arrivalPos="492.80" arrivalSpeed="13.51" duration="122.00" routeLength="1495.00" waitingTime="0.00" waitingCount="0" stopTime="0.00" timeLoss="15.34" rerouteNo="0" devices="tripinfo_f_0_2.1 emissions_f_0_2.1" vType="DEFAULT_VEHTYPE" speedFactor="1.01" vaporized="">
        <emissions CO_abs="3286.439798" CO2_abs="309466.273509" HC_abs="21.821235" PMx_abs="4.562793" NOx_abs="118.650649" fuel_abs="98705.725602" electricity_abs="0"/>
    </tripinfo>
    <tripinfo id="f_0_0.9" depart="35.00" departLane="A2B2_0" departPos="5.10" departSpeed="0.00" departDelay="2.00" arrival="166.00" arrivalLane="C2D2_0" arrivalPos="492.80" arrivalSpeed="13.35" duration="131.00" routeLength="1495.00" waitingTime="0.00" waitingCount="0" stopTime="0.00" timeLoss="22.21" rerouteNo="0" devices="tripinfo_f_0_0.9 emissions_f_0_0.9" vType="DEFAULT_VEHTYPE" speedFactor="0.99" vaporized="">
        <emissions CO_abs="4806.338026" CO2_abs="367042.030953" HC_abs="30.341054" PMx_abs="6.140236" NOx_abs="147.139597" fuel_abs="117069.441544" electricity_abs="0"/>
    </tripinfo>
    <tripinfo id="f_0_0.10" depart="38.00" departLane="A2B2_0" departPos="5.10" departSpeed="0.00" departDelay="4.00" arrival="168.00" arrivalLane="C2D2_0" arrivalPos="492.80" arrivalSpeed="12.59" duration="130.00" routeLength="1495.00" waitingTime="0.00" waitingCount="0" stopTime="0.00" timeLoss="13.77" rerouteNo="0" devices="tripinfo_f_0_0.10 emissions_f_0_0.10" vType="DEFAULT_VEHTYPE" speedFactor="0.93" vaporized="">
        <emissions CO_abs="3670.185200" CO2_abs="321922.192177" HC_abs="23.910107" PMx_abs="4.704075" NOx_abs="123.779351" fuel_abs="102678.783528" electricity_abs="0"/>
    </tripinfo>
    <tripinfo id="f_0_1.1" depart="27.00" departLane="C4C3_0" departPos="5.10" departSpeed="0.00" departDelay="1.00" arrival="173.00" arrivalLane="C2C1_0" arrivalPos="492.80" arrivalSpeed="11.88" duration="146.00" routeLength="1495.00" waitingTime="17.00" waitingCount="1" stopTime="0.00" timeLoss="31.04" rerouteNo="0" devices="tripinfo_f_0_1.1 emissions_f_0_1.1" vType="DEFAULT_VEHTYPE" speedFactor="0.94" vaporized="">
        <emissions CO_abs="6245.659565" CO2_abs="367225.291835" HC_abs="36.511272" PMx_abs="5.396959" NOx_abs="140.901468" fuel_abs="117129.746864" electricity_abs="0"/>
    </tripinfo>
    <tripinfo id="f_0_1.2" depart="30.00" departLane="C4C3_0" departPos="5.10" departSpeed="0.00" departDelay="3.00" arrival="179.00" arrivalLane="C2C1_0" arrivalPos="492.80" arrivalSpeed="11.30" duration="149.00" routeLength="1495.00" waitingTime="7.00" waitingCount="1" stopTime="0.00" timeLoss="23.22" rerouteNo="0" devices="tripinfo_f_0_1.2 emissions_f_0_1.2" vType="DEFAULT_VEHTYPE" speedFactor="0.86" vaporized="">
        <emissions CO_abs="5123.088642" CO2_abs="345187.734880" HC_abs="31.088120" PMx_abs="4.698245" NOx_abs="130.926043" fuel_abs="110100.593397" electricity_abs="0"/>
    </tripinfo>
    <tripinfo id="f_0_1.3" depart="33.00" departLane="C4C3_0" departPos="5.10" departSpeed="0.00" departDelay="4.00" arrival="181.00" arrivalLane="C2C1_0" arrivalPos="492.80" arrivalSpeed="14.11" duration="148.00" routeLength="1495.00" waitingTime="6.00" waitingCount="1" stopTime="0.00" timeLoss="42.45" rerouteNo="0" devices="tripinfo_f_0_1.3 emissions_f_0_1.3" vType="DEFAULT_VEHTYPE" speedFactor="1.03" vaporized="">
        <emissions CO_abs="6022.243285" CO2_abs="385413.007229" HC_abs="36.304163" PMx_abs="6.153973" NOx_abs="152.747045" fuel_abs="122929.895675" electricity_abs="0"/>
    </tripinfo>
    <tripinfo id="f_0_1.4" depart="36.00" departLane="C4C3_0" departPos="5.10" departSpeed="0.00" departDelay="5.00" arrival="182.00" arrivalLane="C2C1_0" arrivalPos="492.80" arrivalSpeed="14.21" duration="146.00" routeLength="1495.00" waitingTime="6.00" waitingCount="1" stopTime="0.00" timeLoss="43.19" rerouteNo="0" devices="tripinfo_f_0_1.4 emissions_f_0_1.4" vType="DEFAULT_VEHTYPE" speedFactor="1.05" vaporized="">
        <emissions CO_abs="6664.750126" CO2_abs="411031.471842" HC_abs="39.777569" PMx_abs="6.917076" NOx_abs="165.040672" fuel_abs="131100.813053" electricity_abs="0"/>
    </tripinfo>
    <tripinfo id="f_0_1.5" depart="42.00" departLane="C4C3_0" departPos="5.10" departSpeed="0.00" departDelay="0.00" arrival="184.00" arrivalLane="C2C1_0" arrivalPos="492.80" arrivalSpeed="14.09" duration="142.00" routeLength="1495.00" waitingTime="5.00" waitingCount="1" stopTime="0.00" timeLoss="36.08" rerouteNo="0" devices="tripinfo_f_0_1.5 emissions_f_0_1.5" vType="DEFAULT_VEHTYPE" speedFactor="1.02" vaporized="">
        <emissions CO_abs="6153.797178" CO2_abs="399082.525387" HC_abs="37.105912" PMx_abs="6.632259" NOx_abs="159.259609" fuel_abs="127289.534936" electricity_abs="0"/>
    </tripinfo>
    <tripinfo id="f_0_1.6" depart="45.00" departLane="C4C3_0" departPos="5.10" departSpeed="0.00" departDelay="0.00" arrival="187.00" arrivalLane="C2C1_0" arrivalPos="492.80" arrivalSpeed="11.95" duration="142.00" routeLength="1495.00" waitingTime="0.00" waitingCount="0" stopTime="0.00" timeLoss="17.83" rerouteNo="0" devices="tripinfo_f_0_1.6 emissions_f_0_1.6" vType="DEFAULT_VEHTYPE" speedFactor="0.87" vaporized="">
        <emissions CO_abs="4331.715241" CO2_abs="342851.973428" HC_abs="27.476538" PMx_abs="4.700547" NOx_abs="130.287434" fuel_abs="109355.060272" electricity_abs="0"/>
    </tripinfo>
    <tripinfo id="f_0_3.0" depart="80.00" departLane="C0C1_0" departPos="5.10" departSpeed="0.00" departDelay="0.00" arrival="187.00" arrivalLane="C2C3_0" arrivalPos="492.80" arrivalSpeed="14.42" duration="107.00" routeLength="1495.00" waitingTime="0.00" waitingCount="0" stopTime="0.00" timeLoss="7.59" rerouteNo="0" devices="tripinfo_f_0_3.0 emissions_f_0_3.0" vType="DEFAULT_VEHTYPE" speedFactor="1.09" vaporized="">
        <emissions CO_abs="2111.277504" CO2_abs="278331.591019" HC_abs="14.962166" PMx_abs="3.556712" NOx_abs="99.616061" fuel_abs="88775.325819" electricity_abs="0"/>
    </tripinfo>
    <tripinfo id="f_0_1.7" depart="51.00" departLane="C4C3_0" departPos="5.10" departSpeed="0.00" departDelay="0.00" arrival="188.00" arrivalLane="C2C1_0" arrivalPos="492.80" arrivalSpeed="12.51" duration="137.00" routeLength="1495.00" waitingTime="0.00" waitingCount="0" stopTime="0.00" timeLoss="21.42" rerouteNo="0" devices="tripinfo_f_0_1.7 emissions_f_0_1.7" vType="DEFAULT_VEHTYPE" speedFactor="0.93" vaporized="">
        <emissions CO_abs="4461.773570" CO2_abs="346606.655827" HC_abs="28.123057" PMx_abs="5.096953" NOx_abs="133.859962" fuel_abs="110552.284998" electricity_abs="0"/>
    </tripinfo>
    <tripinfo id="f_0_1.8" depart="56.00" departLane="C4C3_0" departPos="5.10" departSpeed="0.00" departDelay="0.00" arrival="190.00" arrivalLane="C2C1_0" arrivalPos="492.80" arrivalSpeed="15.21" duration="134.00" routeLength="1495.00" waitingTime="0.00" waitingCount="0" stopTime="0.00" timeLoss="42.16" rerouteNo="0" devices="tripinfo_f_0_1.8 emissions_f_0_1.8" vType="DEFAULT_VEHTYPE" speedFactor="1.18" vaporized="">
        <emissions CO_abs="5234.643127" CO2_abs="391216.284175" HC_abs="32.618709" PMx_abs="6.347189" NOx_abs="154.828963" fuel_abs="124780.225374" electricity_abs="0"/>
    </tripinfo>
    <tripinfo id="f_0_1.9" depart="59.00" departLane="C4C3_0" departPos="5.10" departSpeed="0.00" departDelay="1.00" arrival="192.00" arrivalLane="C2C1_0" arrivalPos="492.80" arrivalSpeed="15.22" duration="133.00" routeLength="1495.00" waitingTime="0.00" waitingCount="0" stopTime="0.00" timeLoss="38.93" rerouteNo="0" devices="tripinfo_f_0_1.9 emissions_f_0_1.9" vType="DEFAULT_VEHTYPE" speedFactor="1.15" vaporized="">
        <emissions CO_abs="5724.030979" CO2_abs="406519.093506" HC_abs="35.417871" PMx_abs="7.017877" NOx_abs="163.980245" fuel_abs="129660.823791" electricity_abs="0"/>
    </tripinfo>
    <tripinfo id="f_0_1.10" depart="62.00" departLane="C4C3_0" departPos="5.10" departSpeed="0.00" departDelay="2.00" arrival="193.00" arrivalLane="C2C1_0" arrivalPos="492.80" arrivalSpeed="15.95" duration="131.00" routeLength="1495.00" waitingTime="0.00" waitingCount="0" stopTime="0.00" timeLoss="39.03" rerouteNo="0" devices="tripinfo_f_0_1.10 emissions_f_0_1.10" vType="DEFAULT_VEHTYPE" speedFactor="1.17" vaporized="">
        <emissions CO_abs="5864.247140" CO2_abs="419748.813112" HC_abs="36.431574" PMx_abs="7.501720" NOx_abs="171.063146" fuel_abs="133880.175414" electricity_abs="0"/>
    </tripinfo>
    <tripinfo id="f_0_1.11" depart="69.00" departLane="C4C3_0" departPos="5.10" departSpeed="0.00" departDelay="0.00" arrival="195.00" arrivalLane="C2C1_0" arrivalPos="492.80" arrivalSpeed="15.50" duration="126.00" routeLength="1495.00" waitingTime="2.00" waitingCount="1" stopTime="0.00" timeLoss="34.28" rerouteNo="0" devices="tripinfo_f_0_1.11 emissions_f_0_1.11" vType="DEFAULT_VEHTYPE" speedFactor="1.18" vaporized="">
        <emissions CO_abs="6008.461406" CO2_abs="425103.529444" HC_abs="36.701991" PMx_abs="7.394559" NOx_abs="170.192917" fuel_abs="135588.361791" electricity_abs="0"/>
    </tripinfo>
    <tripinfo id="f_0_1.12" depart="73.00" departLane="C4C3_0" departPos="5.10" departSpeed="0.00" departDelay="0.00" arrival="197.00" arrivalLane="C2C1_0" arrivalPos="492.80" arrivalSpeed="13.37" duration="124.00" routeLength="1495.00" waitingTime="0.00" waitingCount="0" stopTime="0.00" timeLoss="19.19" rerouteNo="0" devices="tripinfo_f_0_1.12 emissions_f_0_1.12" vType="DEFAULT_VEHTYPE" speedFactor="1.03" vaporized="">
        <emissions CO_abs="4399.275123" CO2_abs="368331.838212" HC_abs="28.419208" PMx_abs="5.993959" NOx_abs="145.634015" fuel_abs="117480.795885" electricity_abs="0"/>
    </tripinfo>
    <tripinfo id="f_0_1.13" depart="77.00" departLane="C4C3_0" departPos="5.10" departSpeed="0.00" departDelay="0.00" arrival="199.00" arrivalLane="C2C1_0" arrivalPos="492.80" arrivalSpeed="14.58" duration="122.00" routeLength="1495.00" waitingTime="0.00" waitingCount="0" stopTime="0.00" timeLoss="22.68" rerouteNo="0" devices="tripinfo_f_0_1.13 emissions_f_0_1.13" vType="DEFAULT_VEHTYPE" speedFactor="1.09" vaporized="">
        <emissions CO_abs="4553.352587" CO2_abs="385073.372839" HC_abs="29.277083" PMx_abs="6.239624" NOx_abs="151.398828" fuel_abs="122820.549059" electricity_abs="0"/>
    </tripinfo>
    <tripinfo id="f_0_1.14" depart="80.00" departLane="C4C3_0" departPos="5.10" departSpeed="0.00" departDelay="0.00" arrival="201.00" arrivalLane="C2C1_0" arrivalPos="492.80" arrivalSpeed="13.27" duration="121.00" routeLength="1495.00" waitingTime="0.00" waitingCount="0" stopTime="0.00" timeLoss="16.97" rerouteNo="0" devices="tripinfo_f_0_1.14 emissions_f_0_1.14" vType="DEFAULT_VEHTYPE" speedFactor="1.04" vaporized="">
        <emissions CO_abs="3711.620419" CO2_abs="339965.687662" HC_abs="24.547521" PMx_abs="5.267445" NOx_abs="132.069229" fuel_abs="108433.423104" electricity_abs="0"/>
    </tripinfo>
    <tripinfo id="f_0_2.2" depart="46.00" departLane="E2D2_0" departPos="5.10" departSpeed="0.00" departDelay="2.00" arrival="208.00" arrivalLane="C2B2_0" arrivalPos="492.80" arrivalSpeed="12.08" duration="162.00" routeLength="1495.00" waitingTime="26.00" waitingCount="1" stopTime="0.00" timeLoss="40.41" rerouteNo="0" devices="tripinfo_f_0_2.2 emissions_f_0_2.2" vType="DEFAULT_VEHTYPE" speedFactor="0.89" vaporized="">
        <emissions CO_abs="7708.363659" CO2_abs="376503.296327" HC_abs="43.390668" PMx_abs="5.578625" NOx_abs="145.314450" fuel_abs="120089.804013" electricity_abs="0"/>
    </tripinfo>
    <tripinfo id="f_0_0.11" depart="41.00" departLane="A2B2_0" departPos="5.10" departSpeed="0.00" departDelay="2.00" arrival="209.00" arrivalLane="C2D2_0" arrivalPos="492.80" arrivalSpeed="11.51" duration="168.00" routeLength="1495.00" waitingTime="24.00" waitingCount="1" stopTime="0.00" timeLoss="44.67" rerouteNo="0" devices="tripinfo_f_0_0.11 emissions_f_0_0.11" vType="DEFAULT_VEHTYPE" speedFactor="0.88" vaporized="">
        <emissions CO_abs="8605.699921" CO2_abs="417479.481542" HC_abs="48.508035" PMx_abs="6.418409" NOx_abs="163.170306" fuel_abs="133159.347972" electricity_abs="0"/>
    </tripinfo>
    <tripinfo id="f_0_0.12" depart="44.00" departLane="A2B2_0" departPos="5.10" departSpeed="0.00" departDelay="4.00" arrival="210.00" arrivalLane="C2D2_0" arrivalPos="492.80" arrivalSpeed="12.85" duration="166.00" routeLength="1495.00" waitingTime="24.00" waitingCount="1" stopTime="0.00" timeLoss="51.53" rerouteNo="0" devices="tripinfo_f_0_0.12 emissions_f_0_0.12" vType="DEFAULT_VEHTYPE" speedFactor="0.94" vaporized="">
        <emissions CO_abs="9414.848367" CO2_abs="438840.336419" HC_abs="52.976989" PMx_abs="7.482046" NOx_abs="177.065130" fuel_abs="139971.948331" electricity_abs="0"/>
    </tripinfo>
    <tripinfo id="f_0_2.3" depart="49.00" departLane="E2D2_0" departPos="5.10" departSpeed="0.00" departDelay="4.00" arrival="210.00" arrivalLane="C2B2_0" arrivalPos="492.80" arrivalSpeed="12.14" duration="161.00" routeLength="1495.00" waitingTime="23.00" waitingCount="1" stopTime="0.00" timeLoss="42.85" rerouteNo="0" devices="tripinfo_f_0_2.3 emissions_f_0_2.3" vType="DEFAULT_VEHTYPE" speedFactor="0.92" vaporized="">
        <emissions CO_abs="8178.592348" CO2_abs="398741.228603" HC_abs="46.217041" PMx_abs="6.371233" NOx_abs="157.284643" fuel_abs="127182.288192" electricity_abs="0"/>
    </tripinfo>
    <tripinfo id="f_0_2.4" depart="52.00" departLane="E2D2_0" departPos="5.10" departSpeed="0.00" departDelay="2.00" arrival="211.00" arrivalLane="C2B2_0" arrivalPos="492.80" arrivalSpeed="13.41" duration="159.00" routeLength="1495.00" waitingTime="24.00" waitingCount="2" stopTime="0.00" timeLoss="63.78" rerouteNo="0" devices="tripinfo_f_0_2.4 emissions_f_0_2.4" vType="DEFAULT_VEHTYPE" speedFactor="1.13" vaporized="">
        <emissions CO_abs="8838.508800" CO2_abs="423008.118047" HC_abs="49.880208" PMx_abs="7.413848" NOx_abs="171.554622" fuel_abs="134921.765838" electricity_abs="0"/>
    </tripinfo>
    <tripinfo id="f_0_0.13" depart="47.00" departLane="A2B2_0" departPos="5.10" departSpeed="0.00" departDelay="6.00" arrival="212.00" arrivalLane="C2D2_0" arrivalPos="492.80" arrivalSpeed="15.07" duration="165.00" routeLength="1495.00" waitingTime="23.00" waitingCount="1" stopTime="0.00" timeLoss="71.56" rerouteNo="0" devices="tripinfo_f_0_0.13 emissions_f_0_0.13" vType="DEFAULT_VEHTYPE" speedFactor="1.16" vaporized="">
        <emissions CO_abs="10360.850721" CO2_abs="485836.530337" HC_abs="58.343990" PMx_abs="8.719551" NOx_abs="198.865510" fuel_abs="154961.238734" electricity_abs="0"/>
    </tripinfo>
    <tripinfo id="f_0_2.5" depart="65.00" departLane="E2D2_0" departPos="5.10" departSpeed="0.00" departDelay="0.00" arrival="213.00" arrivalLane="C2B2_0" arrivalPos="492.80" arrivalSpeed="12.93" duration="148.00" routeLength="1495.00" waitingTime="22.00" waitingCount="1" stopTime="0.00" timeLoss="42.03" rerouteNo="0" devices="tripinfo_f_0_2.5 emissions_f_0_2.5" vType="DEFAULT_VEHTYPE" speedFactor="1.02" vaporized="">
        <emissions CO_abs="7516.902109" CO2_abs="393090.983469" HC_abs="43.035280" PMx_abs="6.469439" NOx_abs="155.537801" fuel_abs="125379.546555" electricity_abs="0"/>
    </tripinfo>
    <tripinfo id="f_0_0.14" depart="50.00" departLane="A2B2_0" departPos="5.10" departSpeed="0.00" departDelay="6.00" arrival="214.00" arrivalLane="C2D2_0" arrivalPos="492.80" arrivalSpeed="12.28" duration="164.00" routeLength="1495.00" waitingTime="22.00" waitingCount="1" stopTime="0.00" timeLoss="52.94" rerouteNo="0" devices="tripinfo_f_0_0.14 emissions_f_0_0.14" vType="DEFAULT_VEHTYPE" speedFactor="0.97" vaporized="">
        <emissions CO_abs="9589.981217" CO2_abs="461798.750002" HC_abs="54.244665" PMx_abs="8.128020" NOx_abs="187.670403" fuel_abs="147294.248605" electricity_abs="0"/>
    </tripinfo>
    <tripinfo id="f_0_2.6" depart="68.00" departLane="E2D2_0" departPos="5.10" departSpeed="0.00" departDelay="1.00" arrival="215.00" arrivalLane="C2B2_0" arrivalPos="492.80" arrivalSpeed="12.60" duration="147.00" routeLength="1495.00" waitingTime="18.00" waitingCount="1" stopTime="0.00" timeLoss="35.86" rerouteNo="0" devices="tripinfo_f_0_2.6 emissions_f_0_2.6" vType="DEFAULT_VEHTYPE" speedFactor="0.97" vaporized="">
        <emissions CO_abs="7020.660932" CO2_abs="378920.531137" HC_abs="40.360012" PMx_abs="6.083439" NOx_abs="148.909907" fuel_abs="120859.803834" electricity_abs="0"/>
    </tripinfo>
    <tripinfo id="f_0_2.7" depart="79.00" departLane="E2D2_0" departPos="5.10" departSpeed="0.00" departDelay="0.00" arrival="217.00" arrivalLane="C2B2_0" arrivalPos="492.80" arrivalSpeed="13.82" duration="138.00" routeLength="1495.00" waitingTime="13.00" waitingCount="1" stopTime="0.00" timeLoss="33.43" rerouteNo="0" devices="tripinfo_f_0_2.7 emissions_f_0_2.7" vType="DEFAULT_VEHTYPE" speedFactor="1.04" vaporized="">
        <emissions CO_abs="6395.733700" CO2_abs="393158.313948" HC_abs="37.893620" PMx_abs="6.412599" NOx_abs="154.644698" fuel_abs="125400.386459" electricity_abs="0"/>
    </tripinfo>
    <tripinfo id="f_0_0.15" depart="53.00" departLane="A2B2_0" departPos="5.10" departSpeed="0.00" departDelay="8.00" arrival="218.00" arrivalLane="C2D2_0" arrivalPos="492.80" arrivalSpeed="11.45" duration="165.00" routeLength="1495.00" waitingTime="18.00" waitingCount="1" stopTime="0.00" timeLoss="34.33" rerouteNo="0" devices="tripinfo_f_0_0.15 emissions_f_0_0.15" vType="DEFAULT_VEHTYPE" speedFactor="0.83" vaporized="">
        <emissions CO_abs="7377.729461" CO2_abs="377653.021686" HC_abs="42.185982" PMx_abs="5.650713" NOx_abs="147.133879" fuel_abs="120456.183600" electricity_abs="0"/>
    </tripinfo>
    <tripinfo id="f_0_0.16" depart="56.00" departLane="A2B2_0" departPos="5.10" departSpeed="0.00" departDelay="9.00" arrival="220.00" arrivalLane="C2D2_0" arrivalPos="492.80" arrivalSpeed="13.09" duration="164.00" routeLength="1495.00" waitingTime="18.00" waitingCount="1" stopTime="0.00" timeLoss="49.87" rerouteNo="0" devices="tripinfo_f_0_0.16 emissions_f_0_0.16" vType="DEFAULT_VEHTYPE" speedFactor="0.95" vaporized="">
        <emissions CO_abs="8150.336289" CO2_abs="419606.779821" HC_abs="46.700168" PMx_abs="6.742422" NOx_abs="166.791485" fuel_abs="133837.148911" electricity_abs="0"/>
    </tripinfo>
    <tripinfo id="f_0_2.8" depart="82.00" departLane="E2D2_0" departPos="5.10" departSpeed="0.00" departDelay="1.00" arrival="220.00" arrivalLane="C2B2_0" arrivalPos="492.80" arrivalSpeed="12.10" duration="138.00" routeLength="1495.00" waitingTime="0.00" waitingCount="0" stopTime="0.00" timeLoss="14.72" rerouteNo="0" devices="tripinfo_f_0_2.8 emissions_f_0_2.8" vType="DEFAULT_VEHTYPE" speedFactor="0.88" vaporized="">
        <emissions CO_abs="3844.343701" CO2_abs="325762.599792" HC_abs="24.870682" PMx_abs="4.320358" NOx_abs="122.657604" fuel_abs="103904.291127" electricity_abs="0"/>
    </tripinfo>
    <tripinfo id="f_0_0.17" depart="59.00" departLane="A2B2_0" departPos="5.10" departSpeed="0.00" departDelay="0.00" arrival="221.00" arrivalLane="C2D2_0" arrivalPos="492.80" arrivalSpeed="12.85" duration="162.00" routeLength="1495.00" waitingTime="16.00" waitingCount="1" stopTime="0.00" timeLoss="54.88" rerouteNo="0" devices="tripinfo_f_0_0.17 emissions_f_0_0.17" vType="DEFAULT_VEHTYPE" speedFactor="1.01" vaporized="">
        <emissions CO_abs="8544.287573" CO2_abs="439016.759231" HC_abs="49.084207" PMx_abs="7.507808" NOx_abs="177.685235" fuel_abs="140027.615035" electricity_abs="0"/>
    </tripinfo>
    <tripinfo id="f_0_2.9" depart="85.00" departLane="E2D2_0" departPos="5.10" departSpeed="0.00" departDelay="2.00" arrival="222.00" arrivalLane="C2B2_0" arrivalPos="492.80" arrivalSpeed="15.11" duration="137.00" routeLength="1495.00" waitingTime="0.00" waitingCount="0" stopTime="0.00" timeLoss="44.11" rerouteNo="0" devices="tripinfo_f_0_2.9 emissions_f_0_2.9" vType="DEFAULT_VEHTYPE" speedFactor="1.17" vaporized="">
        <emissions CO_abs="4742.802059" CO2_abs="367361.832411" HC_abs="29.967186" PMx_abs="5.647788" NOx_abs="143.711461" fuel_abs="117172.007546" electricity_abs="0"/>
    </tripinfo>
    <tripinfo id="f_0_0.18" depart="62.00" departLane="A2B2_0" departPos="5.10" departSpeed="0.00" departDelay="0.00" arrival="223.00" arrivalLane="C2D2_0" arrivalPos="492.80" arrivalSpeed="13.43" duration="161.00" routeLength="1495.00" waitingTime="16.00" waitingCount="1" stopTime="0.00" timeLoss="52.40" rerouteNo="0" devices="tripinfo_f_0_0.18 emissions_f_0_0.18" vType="DEFAULT_VEHTYPE" speedFactor="0.99" vaporized="">
        <emissions CO_abs="8670.419495" CO2_abs="438741.680147" HC_abs="49.460860" PMx_abs="7.500631" NOx_abs="177.272644" fuel_abs="139939.949625" electricity_abs="0"/>
    </tripinfo>
    <tripinfo id="f_0_2.10" depart="92.00" departLane="E2D2_0" departPos="5.10" departSpeed="0.00" departDelay="0.00" arrival="224.00" arrivalLane="C2B2_0" arrivalPos="492.80" arrivalSpeed="11.95" duration="132.00" routeLength="1495.00" waitingTime="0.00" waitingCount="0" stopTime="0.00" timeLoss="16.33" rerouteNo="0" devices="tripinfo_f_0_2.10 emissions_f_0_2.10" vType="DEFAULT_VEHTYPE" speedFactor="0.94" vaporized="">
        <emissions CO_abs="4159.385110" CO2_abs="339514.719604" HC_abs="26.677384" PMx_abs="5.244023" NOx_abs="133.032093" fuel_abs="108289.829678" electricity_abs="0"/>
    </tripinfo>
    <tripinfo id="f_0_0.19" depart="71.00" departLane="A2B2_0" departPos="5.10" departSpeed="0.00" departDelay="0.00" arrival="225.00" arrivalLane="C2D2_0" arrivalPos="492.80" arrivalSpeed="14.24" duration="154.00" routeLength="1495.00" waitingTime="15.00" waitingCount="1" stopTime="0.00" timeLoss="55.61" rerouteNo="0" devices="tripinfo_f_0_0.19 emissions_f_0_0.19" vType="DEFAULT_VEHTYPE" speedFactor="1.10" vaporized="">
        <emissions CO_abs="8923.753130" CO2_abs="455474.217894" HC_abs="51.018818" PMx_abs="8.139218" NOx_abs="185.977806" fuel_abs="145276.476945" electricity_abs="0"/>
    </tripinfo>
    <tripinfo id="f_0_2.11" depart="97.00" departLane="E2D2_0" departPos="5.10" departSpeed="0.00" departDelay="0.00" arrival="225.00" arrivalLane="C2B2_0" arrivalPos="492.80" arrivalSpeed="13.24" duration="128.00" routeLength="1495.00" waitingTime="0.00" waitingCount="0" stopTime="0.00" timeLoss="17.15" rerouteNo="0" devices="tripinfo_f_0_2.11 emissions_f_0_2.11" vType="DEFAULT_VEHTYPE" speedFactor="0.97" vaporized="">