<?xml version="1.0" encoding="UTF-8"?>

<!-- generated on 2024-08-22 12:40:34 by Eclipse SUMO sumo Version 1.17.0
<configuration xmlns:xsi="http://www.w3.org/2001/XMLSchema-instance" xsi:noNamespaceSchemaLocation="http://sumo.dlr.de/xsd/sumoConfiguration.xsd">

    <input>
        <net-file value="single_actuated.net.xml"/>
        <route-files value="single_5.rou.xml"/>
    </input>

    <output>
        <tripinfo-output value="emissions_test\z_actuated_5_emissions_tripinfo_single.xml"/>
    </output>

    <processing>
        <time-to-teleport value="-1"/>
    </processing>

    <emissions>
        <device.emissions.probability value="1.0"/>
    </emissions>

    <traci_server>
        <remote-port value="57293"/>
    </traci_server>

</configuration>
-->

<tripinfos xmlns:xsi="http://www.w3.org/2001/XMLSchema-instance" xsi:noNamespaceSchemaLocation="http://sumo.dlr.de/xsd/tripinfo_file.xsd">
    <tripinfo id="f_0_0.0" depart="2.00" departLane="A2B2_0" departPos="5.10" departSpeed="0.00" departDelay="0.00" arrival="111.00" arrivalLane="C2D2_0" arrivalPos="492.80" arrivalSpeed="14.60" duration="109.00" routeLength="1495.00" waitingTime="0.00" waitingCount="0" stopTime="0.00" timeLoss="6.86" rerouteNo="0" devices="tripinfo_f_0_0.0 emissions_f_0_0.0" vType="DEFAULT_VEHTYPE" speedFactor="1.06" vaporized="">
        <emissions CO_abs="2199.776080" CO2_abs="287835.930808" HC_abs="15.602273" PMx_abs="3.718026" NOx_abs="104.039703" fuel_abs="91806.730492" electricity_abs="0"/>
    </tripinfo>
    <tripinfo id="f_0_0.1" depart="5.00" departLane="A2B2_0" departPos="5.10" departSpeed="0.00" departDelay="0.00" arrival="130.00" arrivalLane="C2D2_0" arrivalPos="492.80" arrivalSpeed="12.19" duration="125.00" routeLength="1495.00" waitingTime="0.00" waitingCount="0" stopTime="0.00" timeLoss="9.97" rerouteNo="0" devices="tripinfo_f_0_0.1 emissions_f_0_0.1" vType="DEFAULT_VEHTYPE" speedFactor="0.94" vaporized="">
        <emissions CO_abs="2947.846108" CO2_abs="308852.266195" HC_abs="20.179080" PMx_abs="4.067112" NOx_abs="115.024687" fuel_abs="98510.257807" electricity_abs="0"/>
    </tripinfo>
    <tripinfo id="f_0_0.2" depart="10.00" departLane="A2B2_0" departPos="5.10" departSpeed="0.00" departDelay="0.00" arrival="132.00" arrivalLane="C2D2_0" arrivalPos="492.80" arrivalSpeed="13.15" duration="122.00" routeLength="1495.00" waitingTime="0.00" waitingCount="0" stopTime="0.00" timeLoss="14.82" rerouteNo="0" devices="tripinfo_f_0_0.2 emissions_f_0_0.2" vType="DEFAULT_VEHTYPE" speedFactor="1.01" vaporized="">
        <emissions CO_abs="3457.141356" CO2_abs="327939.203499" HC_abs="22.940587" PMx_abs="4.831501" NOx_abs="125.333605" fuel_abs="104597.751398" electricity_abs="0"/>
    </tripinfo>
    <tripinfo id="f_0_0.3" depart="16.00" departLane="A2B2_0" departPos="5.10" departSpeed="0.00" departDelay="0.00" arrival="133.00" arrivalLane="C2D2_0" arrivalPos="492.80" arrivalSpeed="14.34" duration="117.00" routeLength="1495.00" waitingTime="0.00" waitingCount="0" stopTime="0.00" timeLoss="17.51" rerouteNo="0" devices="tripinfo_f_0_0.3 emissions_f_0_0.3" vType="DEFAULT_VEHTYPE" speedFactor="1.08" vaporized="">
        <emissions CO_abs="3576.444483" CO2_abs="331311.957442" HC_abs="23.512577" PMx_abs="5.149014" NOx_abs="127.816754" fuel_abs="105673.278864" electricity_abs="0"/>
    </tripinfo>
    <tripinfo id="f_0_0.4" depart="20.00" departLane="A2B2_0" departPos="5.10" departSpeed="0.00" departDelay="0.00" arrival="135.00" arrivalLane="C2D2_0" arrivalPos="492.80" arrivalSpeed="13.31" duration="115.00" routeLength="1495.00" waitingTime="0.00" waitingCount="0" stopTime="0.00" timeLoss="10.21" rerouteNo="0" devices="tripinfo_f_0_0.4 emissions_f_0_0.4" vType="DEFAULT_VEHTYPE" speedFactor="1.03" vaporized="">
        <emissions CO_abs="2960.791742" CO2_abs="308798.712252" HC_abs="20.058341" PMx_abs="4.452119" NOx_abs="116.454813" fuel_abs="98492.750153" electricity_abs="0"/>
    </tripinfo>
    <tripinfo id="f_0_1.0" depart="40.00" departLane="C4C3_0" departPos="5.10" departSpeed="0.00" departDelay="0.00" arrival="180.00" arrivalLane="C2C1_0" arrivalPos="492.80" arrivalSpeed="10.80" duration="140.00" routeLength="1495.00" waitingTime="0.00" waitingCount="0" stopTime="0.00" timeLoss="10.46" rerouteNo="0" devices="tripinfo_f_0_1.0 emissions_f_0_1.0" vType="DEFAULT_VEHTYPE" speedFactor="0.83" vaporized="">
        <emissions CO_abs="3325.022901" CO2_abs="304618.607759" HC_abs="21.961932" PMx_abs="3.635848" NOx_abs="112.099296" fuel_abs="97160.563693" electricity_abs="0"/>
    </tripinfo>
    <tripinfo id="f_0_1.1" depart="43.00" departLane="C4C3_0" departPos="5.10" departSpeed="0.00" departDelay="0.00" arrival="182.00" arrivalLane="C2C1_0" arrivalPos="492.80" arrivalSpeed="13.89" duration="139.00" routeLength="1495.00" waitingTime="0.00" waitingCount="0" stopTime="0.00" timeLoss="35.57" rerouteNo="0" devices="tripinfo_f_0_1.1 emissions_f_0_1.1" vType="DEFAULT_VEHTYPE" speedFactor="1.05" vaporized="">
        <emissions CO_abs="4514.646719" CO2_abs="356129.946445" HC_abs="28.732635" PMx_abs="5.335840" NOx_abs="138.783885" fuel_abs="113589.620187" electricity_abs="0"/>
    </tripinfo>
    <tripinfo id="f_0_1.2" depart="46.00" departLane="C4C3_0" departPos="5.10" departSpeed="0.00" departDelay="1.00" arrival="184.00" arrivalLane="C2C1_0" arrivalPos="492.80" arrivalSpeed="12.05" duration="138.00" routeLength="1495.00" waitingTime="0.00" waitingCount="0" stopTime="0.00" timeLoss="15.96" rerouteNo="0" devices="tripinfo_f_0_1.2 emissions_f_0_1.2" vType="DEFAULT_VEHTYPE" speedFactor="0.89" vaporized="">
        <emissions CO_abs="4317.199854" CO2_abs="345078.438577" HC_abs="27.575843" PMx_abs="5.148934" NOx_abs="134.369401" fuel_abs="110064.660768" electricity_abs="0"/>
    </tripinfo>
    <tripinfo id="f_0_2.0" depart="80.00" departLane="E2D2_0" departPos="5.10" departSpeed="0.00" departDelay="0.00" arrival="184.00" arrivalLane="C2B2_0" arrivalPos="492.80" arrivalSpeed="14.55" duration="104.00" routeLength="1495.00" waitingTime="0.00" waitingCount="0" stopTime="0.00" timeLoss="7.49" rerouteNo="0" devices="tripinfo_f_0_2.0 emissions_f_0_2.0" vType="DEFAULT_VEHTYPE" speedFactor="1.12" vaporized="">
        <emissions CO_abs="2346.026445" CO2_abs="281033.421117" HC_abs="16.263692" PMx_abs="3.931747" NOx_abs="103.371530" fuel_abs="89636.811252" electricity_abs="0"/>
    </tripinfo>
    <tripinfo id="f_0_1.3" depart="49.00" departLane="C4C3_0" departPos="5.10" departSpeed="0.00" departDelay="1.00" arrival="186.00" arrivalLane="C2C1_0" arrivalPos="492.80" arrivalSpeed="12.24" duration="137.00" routeLength="1495.00" waitingTime="0.00" waitingCount="0" stopTime="0.00" timeLoss="21.41" rerouteNo="0" devices="tripinfo_f_0_1.3 emissions_f_0_1.3" vType="DEFAULT_VEHTYPE" speedFactor="0.94" vaporized="">
        <emissions CO_abs="5294.724456" CO2_abs="392008.136044" HC_abs="33.187144" PMx_abs="6.531816" NOx_abs="157.390212" fuel_abs="125032.589431" electricity_abs="0"/>
    </tripinfo>
    <tripinfo id="f_0_1.4" depart="52.00" departLane="C4C3_0" departPos="5.10" departSpeed="0.00" departDelay="3.00" arrival="203.00" arrivalLane="C2C1_0" arrivalPos="492.80" arrivalSpeed="11.03" duration="151.00" routeLength="1495.00" waitingTime="10.00" waitingCount="1" stopTime="0.00" timeLoss="24.90" rerouteNo="0" devices="tripinfo_f_0_1.4 emissions_f_0_1.4" vType="DEFAULT_VEHTYPE" speedFactor="0.86" vaporized="">
        <emissions CO_abs="5603.383120" CO2_abs="351614.476240" HC_abs="33.469415" PMx_abs="4.968629" NOx_abs="134.659220" fuel_abs="112150.487798" electricity_abs="0"/>
    </tripinfo>
    <tripinfo id="f_0_1.5" depart="55.00" departLane="C4C3_0" departPos="5.10" departSpeed="0.00" departDelay="1.00" arrival="205.00" arrivalLane="C2C1_0" arrivalPos="492.80" arrivalSpeed="13.90" duration="150.00" routeLength="1495.00" waitingTime="10.00" waitingCount="1" stopTime="0.00" timeLoss="50.45" rerouteNo="0" devices="tripinfo_f_0_1.5 emissions_f_0_1.5" vType="DEFAULT_VEHTYPE" speedFactor="1.09" vaporized="">
        <emissions CO_abs="6958.785830" CO2_abs="401437.701083" HC_abs="40.995618" PMx_abs="6.821740" NOx_abs="162.018168" fuel_abs="128041.019708" electricity_abs="0"/>
    </tripinfo>
    <tripinfo id="f_0_1.6" depart="58.00" departLane="C4C3_0" departPos="5.10" departSpeed="0.00" departDelay="0.00" arrival="206.00" arrivalLane="C2C1_0" arrivalPos="492.80" arrivalSpeed="14.04" duration="148.00" routeLength="1495.00" waitingTime="12.00" waitingCount="2" stopTime="0.00" timeLoss="42.90" rerouteNo="0" devices="tripinfo_f_0_1.6 emissions_f_0_1.6" vType="DEFAULT_VEHTYPE" speedFactor="1.03" vaporized="">
        <emissions CO_abs="7776.446802" CO2_abs="431769.436594" HC_abs="45.240525" PMx_abs="7.439632" NOx_abs="174.216855" fuel_abs="137715.599738" electricity_abs="0"/>
    </tripinfo>
    <tripinfo id="f_0_1.7" depart="68.00" departLane="C4C3_0" departPos="5.10" departSpeed="0.00" departDelay="0.00" arrival="208.00" arrivalLane="C2C1_0" arrivalPos="492.80" arrivalSpeed="14.26" duration="140.00" routeLength="1495.00" waitingTime="7.00" waitingCount="2" stopTime="0.00" timeLoss="36.73" rerouteNo="0" devices="tripinfo_f_0_1.7 emissions_f_0_1.7" vType="DEFAULT_VEHTYPE" speedFactor="1.05" vaporized="">
        <emissions CO_abs="6900.376506" CO2_abs="421302.144287" HC_abs="40.902594" PMx_abs="7.154723" NOx_abs="168.671938" fuel_abs="134376.676429" electricity_abs="0"/>
    </tripinfo>
    <tripinfo id="f_0_2.1" depart="83.00" departLane="E2D2_0" departPos="5.10" departSpeed="0.00" departDelay="1.00" arrival="208.00" arrivalLane="C2B2_0" arrivalPos="492.80" arrivalSpeed="13.30" duration="125.00" routeLength="1495.00" waitingTime="3.00" waitingCount="1" stopTime="0.00" timeLoss="16.30" rerouteNo="0" devices="tripinfo_f_0_2.1 emissions_f_0_2.1" vType="DEFAULT_VEHTYPE" speedFactor="0.99" vaporized="">
        <emissions CO_abs="3810.842787" CO2_abs="321860.619567" HC_abs="24.202062" PMx_abs="4.533532" NOx_abs="121.147970" fuel_abs="102659.476681" electricity_abs="0"/>
    </tripinfo>
    <tripinfo id="f_0_2.2" depart="86.00" departLane="E2D2_0" departPos="5.10" departSpeed="0.00" departDelay="3.00" arrival="216.00" arrivalLane="C2B2_0" arrivalPos="492.80" arrivalSpeed="12.33" duration="130.00" routeLength="1495.00" waitingTime="0.00" waitingCount="0" stopTime="0.00" timeLoss="13.47" rerouteNo="0" devices="tripinfo_f_0_2.2 emissions_f_0_2.2" vType="DEFAULT_VEHTYPE" speedFactor="0.93" vaporized="">
        <emissions CO_abs="3485.901467" CO2_abs="328053.462406" HC_abs="22.956631" PMx_abs="4.390509" NOx_abs="122.581680" fuel_abs="104634.742343" electricity_abs="0"/>
    </tripinfo>
    <tripinfo id="f_0_2.3" depart="89.00" departLane="E2D2_0" departPos="5.10" departSpeed="0.00" departDelay="2.00" arrival="234.00" arrivalLane="C2B2_0" arrivalPos="492.80" arrivalSpeed="11.55" duration="145.00" routeLength="1495.00" waitingTime="6.00" waitingCount="1" stopTime="0.00" timeLoss="21.69" rerouteNo="0" devices="tripinfo_f_0_2.3 emissions_f_0_2.3" vType="DEFAULT_VEHTYPE" speedFactor="0.88" vaporized="">
        <emissions CO_abs="4848.816984" CO2_abs="359340.846970" HC_abs="30.025395" PMx_abs="4.748355" NOx_abs="134.819198" fuel_abs="114614.738569" electricity_abs="0"/>
    </tripinfo>
    <tripinfo id="f_0_2.4" depart="92.00" departLane="E2D2_0" departPos="5.10" departSpeed="0.00" departDelay="4.00" arrival="235.00" arrivalLane="C2B2_0" arrivalPos="492.80" arrivalSpeed="12.78" duration="143.00" routeLength="1495.00" waitingTime="6.00" waitingCount="1" stopTime="0.00" timeLoss="28.58" rerouteNo="0" devices="tripinfo_f_0_2.4 emissions_f_0_2.4" vType="DEFAULT_VEHTYPE" speedFactor="0.94" vaporized="">
        <emissions CO_abs="5649.942328" CO2_abs="373314.042377" HC_abs="34.268341" PMx_abs="5.840273" NOx_abs="146.874412" fuel_abs="119070.890070" electricity_abs="0"/>
    </tripinfo>
    <tripinfo id="f_0_2.5" depart="95.00" departLane="E2D2_0" departPos="5.10" departSpeed="0.00" departDelay="3.00" arrival="237.00" arrivalLane="C2B2_0" arrivalPos="492.80" arrivalSpeed="12.64" duration="142.00" routeLength="1495.00" waitingTime="4.00" waitingCount="1" stopTime="0.00" timeLoss="26.65" rerouteNo="0" devices="tripinfo_f_0_2.5 emissions_f_0_2.5" vType="DEFAULT_VEHTYPE" speedFactor="0.94" vaporized="">
        <emissions CO_abs="5428.540627" CO2_abs="367440.275012" HC_abs="33.002246" PMx_abs="5.740195" NOx_abs="144.256210" fuel_abs="117197.348642" electricity_abs="0"/>
    </tripinfo>
    <tripinfo id="f_0_2.6" depart="98.00" departLane="E2D2_0" departPos="5.10" departSpeed="0.00" departDelay="4.00" arrival="239.00" arrivalLane="C2B2_0" arrivalPos="492.80" arrivalSpeed="15.89" duration="141.00" routeLength="1495.00" waitingTime="3.00" waitingCount="1" stopTime="0.00" timeLoss="47.30" rerouteNo="0" devices="tripinfo_f_0_2.6 emissions_f_0_2.6" vType="DEFAULT_VEHTYPE" speedFactor="1.16" vaporized="">
        <emissions CO_abs="6232.162806" CO2_abs="407505.694535" HC_abs="37.601552" PMx_abs="6.678449" NOx_abs="162.119403" fuel_abs="129976.225121" electricity_abs="0"/>
    </tripinfo>
    <tripinfo id="f_0_2.7" depart="101.00" departLane="E2D2_0" departPos="5.10" departSpeed="0.00" departDelay="6.00" arrival="240.00" arrivalLane="C2B2_0" arrivalPos="492.80" arrivalSpeed="13.69" duration="139.00" routeLength="1495.00" waitingTime="3.00" waitingCount="1" stopTime="0.00" timeLoss="33.18" rerouteNo="0" devices="tripinfo_f_0_2.7 emissions_f_0_2.7" vType="DEFAULT_VEHTYPE" speedFactor="1.02" vaporized="">
        <emissions CO_abs="5921.020263" CO2_abs="393480.226575" HC_abs="35.753689" PMx_abs="6.450693" NOx_abs="156.150490" fuel_abs="125502.642941" electricity_abs="0"/>
    </tripinfo>
    <tripinfo id="f_0_2.8" depart="104.00" departLane="E2D2_0" departPos="5.10" departSpeed="0.00" departDelay="8.00" arrival="242.00" arrivalLane="C2B2_0" arrivalPos="492.80" arrivalSpeed="13.78" duration="138.00" routeLength="1495.00" waitingTime="2.00" waitingCount="1" stopTime="0.00" timeLoss="31.09" rerouteNo="0" devices="tripinfo_f_0_2.8 emissions_f_0_2.8" vType="DEFAULT_VEHTYPE" speedFactor="1.01" vaporized="">
        <emissions CO_abs="5757.528998" CO2_abs="390744.518348" HC_abs="35.039378" PMx_abs="6.418417" NOx_abs="155.247359" fuel_abs="124630.003960" electricity_abs="0"/>
    </tripinfo>
    <tripinfo id="f_0_2.9" depart="107.00" departLane="E2D2_0" departPos="5.10" departSpeed="0.00" departDelay="10.00" arrival="244.00" arrivalLane="C2B2_0" arrivalPos="492.80" arrivalSpeed="13.20" duration="137.00" routeLength="1495.00" waitingTime="2.00" waitingCount="1" stopTime="0.00" timeLoss="26.05" rerouteNo="0" devices="tripinfo_f_0_2.9 emissions_f_0_2.9" vType="DEFAULT_VEHTYPE" speedFactor="0.97" vaporized="">
        <emissions CO_abs="4930.885215" CO2_abs="366304.524583" HC_abs="30.307221" PMx_abs="5.473877" NOx_abs="141.240269" fuel_abs="116835.075325" electricity_abs="0"/>
    </tripinfo>
    <tripinfo id="f_0_3.0" depart="122.00" departLane="C0C1_0" departPos="5.10" departSpeed="0.00" departDelay="0.00" arrival="252.00" arrivalLane="C2C3_0" arrivalPos="492.80" arrivalSpeed="11.30" duration="130.00" routeLength="1495.00" waitingTime="0.00" waitingCount="0" stopTime="0.00" timeLoss="8.85" rerouteNo="0" devices="tripinfo_f_0_3.0 emissions_f_0_3.0" vType="DEFAULT_VEHTYPE" speedFactor="0.89" vaporized="">
        <emissions CO_abs="2813.945147" CO2_abs="292345.634286" HC_abs="19.109604" PMx_abs="3.601557" NOx_abs="107.262016" fuel_abs="93245.681845" electricity_abs="0"/>
    </tripinfo>
    <tripinfo id="f_0_3.1" depart="125.00" departLane="C0C1_0" departPos="5.10" departSpeed="0.00" departDelay="1.00" arrival="271.00" arrivalLane="C2C3_0" arrivalPos="492.80" arrivalSpeed="11.42" duration="146.00" routeLength="1495.00" waitingTime="0.00" waitingCount="0" stopTime="0.00" timeLoss="15.37" rerouteNo="0" devices="tripinfo_f_0_3.1 emissions_f_0_3.1" vType="DEFAULT_VEHTYPE" speedFactor="0.83" vaporized="">
        <emissions CO_abs="4277.184694" CO2_abs="332887.575124" HC_abs="27.028554" PMx_abs="4.349389" NOx_abs="125.550339" fuel_abs="106177.102381" electricity_abs="0"/>
    </tripinfo>
    <tripinfo id="f_0_3.2" depart="139.00" departLane="C0C1_0" departPos="5.10" departSpeed="0.00" departDelay="0.00" arrival="273.00" arrivalLane="C2C3_0" arrivalPos="492.80" arrivalSpeed="11.37" duration="134.00" routeLength="1495.00" waitingTime="0.00" waitingCount="0" stopTime="0.00" timeLoss="10.26" rerouteNo="0" devices="tripinfo_f_0_3.2 emissions_f_0_3.2" vType="DEFAULT_VEHTYPE" speedFactor="0.87" vaporized="">
        <emissions CO_abs="2957.013905" CO2_abs="289616.806873" HC_abs="19.867630" PMx_abs="3.585784" NOx_abs="107.048406" fuel_abs="92375.350290" electricity_abs="0"/>
    </tripinfo>
    <tripinfo id="f_0_3.3" depart="145.00" departLane="C0C1_0" departPos="5.10" departSpeed="0.00" departDelay="0.00" arrival="275.00" arrivalLane="C2C3_0" arrivalPos="492.80" arrivalSpeed="11.68" duration="130.00" routeLength="1495.00" waitingTime="0.00" waitingCount="0" stopTime="0.00" timeLoss="12.03" rerouteNo="0" devices="tripinfo_f_0_3.3 emissions_f_0_3.3" vType="DEFAULT_VEHTYPE" speedFactor="0.92" vaporized="">
        <emissions CO_abs="3139.254037" CO2_abs="308803.499167" HC_abs="20.948903" PMx_abs="4.024929" NOx_abs="114.898619" fuel_abs="98494.864787" electricity_abs="0"/>
    </tripinfo>
    <tripinfo id="f_0_3.4" depart="148.00" departLane="C0C1_0" departPos="5.10" departSpeed="0.00" departDelay="1.00" arrival="276.00" arrivalLane="C2C3_0" arrivalPos="492.80" arrivalSpeed="12.96" duration="128.00" routeLength="1495.00" waitingTime="0.00" waitingCount="0" stopTime="0.00" timeLoss="14.57" rerouteNo="0" devices="tripinfo_f_0_3.4 emissions_f_0_3.4" vType="DEFAULT_VEHTYPE" speedFactor="0.95" vaporized="">
        <emissions CO_abs="3593.961384" CO2_abs="324799.094322" HC_abs="23.557822" PMx_abs="4.720422" NOx_abs="124.463457" fuel_abs="103596.359642" electricity_abs="0"/>
    </tripinfo>
    <tripinfo id="f_1_3.0" depart="205.00" departLane="C0C1_0" departPos="5.10" departSpeed="0.00" departDelay="0.00" arrival="312.00" arrivalLane="C2C3_0" arrivalPos="492.80" arrivalSpeed="15.61" duration="107.00" routeLength="1495.00" waitingTime="2.00" waitingCount="1" stopTime="0.00" timeLoss="14.91" rerouteNo="0" devices="tripinfo_f_1_3.0 emissions_f_1_3.0" vType="DEFAULT_VEHTYPE" speedFactor="1.18" vaporized="">
        <emissions CO_abs="3592.549429" CO2_abs="335174.074688" HC_abs="23.188465" PMx_abs="5.153969" NOx_abs="126.783801" fuel_abs="106905.177086" electricity_abs="0"/>
    </tripinfo>
    <tripinfo id="f_1_1.0" depart="200.00" departLane="C4C3_0" departPos="5.10" departSpeed="0.00" departDelay="0.00" arrival="314.00" arrivalLane="C2C1_0" arrivalPos="492.80" arrivalSpeed="14.63" duration="114.00" routeLength="1495.00" waitingTime="4.00" waitingCount="1" stopTime="0.00" timeLoss="18.01" rerouteNo="0" devices="tripinfo_f_1_1.0 emissions_f_1_1.0" vType="DEFAULT_VEHTYPE" speedFactor="1.13" vaporized="">
        <emissions CO_abs="4113.808868" CO2_abs="336764.382447" HC_abs="25.657030" PMx_abs="5.139603" NOx_abs="127.954803" fuel_abs="107412.738688" electricity_abs="0"/>
    </tripinfo>
    <tripinfo id="f_1_3.1" depart="214.00" departLane="C0C1_0" departPos="5.10" departSpeed="0.00" departDelay="0.00" arrival="314.00" arrivalLane="C2C3_0" arrivalPos="492.80" arrivalSpeed="15.85" duration="100.00" routeLength="1495.00" waitingTime="0.00" waitingCount="0" stopTime="0.00" timeLoss="7.40" rerouteNo="0" devices="tripinfo_f_1_3.1 emissions_f_1_3.1" vType="DEFAULT_VEHTYPE" speedFactor="1.17" vaporized="">
        <emissions CO_abs="2110.925129" CO2_abs="288755.623775" HC_abs="15.118797" PMx_abs="3.860496" NOx_abs="103.736150" fuel_abs="92099.871797" electricity_abs="0"/>
    </tripinfo>
    <tripinfo id="f_1_1.1" depart="208.00" departLane="C4C3_0" departPos="5.10" departSpeed="0.00" departDelay="0.00" arrival="315.00" arrivalLane="C2C1_0" arrivalPos="492.80" arrivalSpeed="14.82" duration="107.00" routeLength="1495.00" waitingTime="0.00" waitingCount="0" stopTime="0.00" timeLoss="13.51" rerouteNo="0" devices="tripinfo_f_1_1.1 emissions_f_1_1.1" vType="DEFAULT_VEHTYPE" speedFactor="1.15" vaporized="">
        <emissions CO_abs="3244.516484" CO2_abs="331960.815613" HC_abs="21.647484" PMx_abs="5.000574" NOx_abs="125.033585" fuel_abs="105880.225828" electricity_abs="0"/>
    </tripinfo>
    <tripinfo id="f_1_0.0" depart="209.00" departLane="A2B2_0" departPos="5.10" departSpeed="0.00" departDelay="0.00" arrival="325.00" arrivalLane="C2D2_0" arrivalPos="492.80" arrivalSpeed="12.92" duration="116.00" routeLength="1495.00" waitingTime="0.00" waitingCount="0" stopTime="0.00" timeLoss="8.49" rerouteNo="0" devices="tripinfo_f_1_0.0 emissions_f_1_0.0" vType="DEFAULT_VEHTYPE" speedFactor="1.01" vaporized="">
        <emissions CO_abs="2519.181381" CO2_abs="294067.276214" HC_abs="17.728343" PMx_abs="3.895021" NOx_abs="108.386977" fuel_abs="93794.334151" electricity_abs="0"/>
    </tripinfo>
    <tripinfo id="f_1_2.0" depart="201.00" departLane="E2D2_0" departPos="5.10" departSpeed="0.00" departDelay="0.00" arrival="329.00" arrivalLane="C2B2_0" arrivalPos="492.80" arrivalSpeed="12.02" duration="128.00" routeLength="1495.00" waitingTime="0.00" waitingCount="0" stopTime="0.00" timeLoss="11.74" rerouteNo="0" devices="tripinfo_f_1_2.0 emissions_f_1_2.0" vType="DEFAULT_VEHTYPE" speedFactor="0.93" vaporized="">
        <emissions CO_abs="3132.130289" CO2_abs="318016.256594" HC_abs="21.052710" PMx_abs="4.112468" NOx_abs="117.670628" fuel_abs="101433.321028" electricity_abs="0"/>
    </tripinfo>
    <tripinfo id="f_1_1.2" depart="222.00" departLane="C4C3_0" departPos="5.10" departSpeed="0.00" departDelay="0.00" arrival="329.00" arrivalLane="C2C1_0" arrivalPos="492.80" arrivalSpeed="15.29" duration="107.00" routeLength="1495.00" waitingTime="3.00" waitingCount="1" stopTime="0.00" timeLoss="15.64" rerouteNo="0" devices="tripinfo_f_1_1.2 emissions_f_1_1.2" vType="DEFAULT_VEHTYPE" speedFactor="1.18" vaporized="">
        <emissions CO_abs="4013.559365" CO2_abs="346932.592033" HC_abs="25.447123" PMx_abs="5.464370" NOx_abs="132.435907" fuel_abs="110655.621371" electricity_abs="0"/>
    </tripinfo>
    <tripinfo id="f_1_3.2" depart="217.00" departLane="C0C1_0" departPos="5.10" departSpeed="0.00" departDelay="2.00" arrival="334.00" arrivalLane="C2C3_0" arrivalPos="492.80" arrivalSpeed="13.74" duration="117.00" routeLength="1495.00" waitingTime="0.00" waitingCount="0" stopTime="0.00" timeLoss="7.84" rerouteNo="0" devices="tripinfo_f_1_3.2 emissions_f_1_3.2" vType="DEFAULT_VEHTYPE" speedFactor="0.99" vaporized="">
        <emissions CO_abs="2184.671298" CO2_abs="286291.195765" HC_abs="15.614168" PMx_abs="3.427637" NOx_abs="102.511043" fuel_abs="91314.346854" electricity_abs="0"/>
    </tripinfo>
    <tripinfo id="f_1_3.3" depart="220.00" departLane="C0C1_0" departPos="5.10" departSpeed="0.00" departDelay="0.00" arrival="335.00" arrivalLane="C2C3_0" arrivalPos="492.80" arrivalSpeed="13.49" duration="115.00" routeLength="1495.00" waitingTime="0.00" waitingCount="0" stopTime="0.00" timeLoss="9.19" rerouteNo="0" devices="tripinfo_f_1_3.3 emissions_f_1_3.3" vType="DEFAULT_VEHTYPE" speedFactor="1.02" vaporized="">
        <emissions CO_abs="2479.350448" CO2_abs="278034.828075" HC_abs="17.052843" PMx_abs="3.767677" NOx_abs="102.903099" fuel_abs="88680.640121" electricity_abs="0"/>
    </tripinfo>
    <tripinfo id="f_1_2.1" depart="232.00" departLane="E2D2_0" departPos="5.10" departSpeed="0.00" departDelay="0.00" arrival="339.00" arrivalLane="C2B2_0" arrivalPos="492.80" arrivalSpeed="14.71" duration="107.00" routeLength="1495.00" waitingTime="0.00" waitingCount="0" stopTime="0.00" timeLoss="7.90" rerouteNo="0" devices="tripinfo_f_1_2.1 emissions_f_1_2.1" vType="DEFAULT_VEHTYPE" speedFactor="1.09" vaporized="">
        <emissions CO_abs="2438.302311" CO2_abs="281922.836871" HC_abs="16.863870" PMx_abs="3.934826" NOx_abs="104.272636" fuel_abs="89920.562535" electricity_abs="0"/>
    </tripinfo>
    <tripinfo id="f_1_1.3" depart="225.00" departLane="C4C3_0" departPos="5.10" departSpeed="0.00" departDelay="0.00" arrival="350.00" arrivalLane="C2C1_0" arrivalPos="492.80" arrivalSpeed="13.74" duration="125.00" routeLength="1495.00" waitingTime="7.00" waitingCount="1" stopTime="0.00" timeLoss="20.38" rerouteNo="0" devices="tripinfo_f_1_1.3 emissions_f_1_1.3" vType="DEFAULT_VEHTYPE" speedFactor="1.03" vaporized="">
        <emissions CO_abs="4285.859396" CO2_abs="336528.524419" HC_abs="26.174992" PMx_abs="4.665937" NOx_abs="125.047193" fuel_abs="107338.146642" electricity_abs="0"/>
    </tripinfo>
    <tripinfo id="f_1_3.4" depart="223.00" departLane="C0C1_0" departPos="5.10" departSpeed="0.00" departDelay="2.00" arrival="352.00" arrivalLane="C2C3_0" arrivalPos="492.80" arrivalSpeed="13.36" duration="129.00" routeLength="1495.00" waitingTime="3.00" waitingCount="1" stopTime="0.00" timeLoss="18.18" rerouteNo="0" devices="tripinfo_f_1_3.4 emissions_f_1_3.4" vType="DEFAULT_VEHTYPE" speedFactor="0.97" vaporized="">
        <emissions CO_abs="4093.342009" CO2_abs="335087.613033" HC_abs="25.837168" PMx_abs="4.712731" NOx_abs="126.685567" fuel_abs="106878.369737" electricity_abs="0"/>
    </tripinfo>
    <tripinfo id="f_1_1.4" depart="231.00" departLane="C4C3_0" departPos="5.10" departSpeed="0.00" departDelay="0.00" arrival="352.00" arrivalLane="C2C1_0" arrivalPos="492.80" arrivalSpeed="14.27" duration="121.00" routeLength="1495.00" waitingTime="3.00" waitingCount="1" stopTime="0.00" timeLoss="17.36" rerouteNo="0" devices="tripinfo_f_1_1.4 emissions_f_1_1.4" vType="DEFAULT_VEHTYPE" speedFactor="1.04" vaporized="">
        <emissions CO_abs="3677.153576" CO2_abs="327135.130291" HC_abs="23.363924" PMx_abs="4.547044" NOx_abs="122.121557" fuel_abs="104341.729080" electricity_abs="0"/>
    </tripinfo>
    <tripinfo id="f_1_3.5" depart="226.00" departLane="C0C1_0" departPos="5.10" departSpeed="0.00" departDelay="4.00" arrival="354.00" arrivalLane="C2C3_0" arrivalPos="492.80" arrivalSpeed="14.33" duration="128.00" routeLength="1495.00" waitingTime="2.00" waitingCount="1" stopTime="0.00" timeLoss="29.76" rerouteNo="0" devices="tripinfo_f_1_3.5 emissions_f_1_3.5" vType="DEFAULT_VEHTYPE" speedFactor="1.10" vaporized="">
        <emissions CO_abs="4899.252913" CO2_abs="362138.315431" HC_abs="30.285856" PMx_abs="5.836565" NOx_abs="142.452710" fuel_abs="115505.771460" electricity_abs="0"/>
    </tripinfo>
    <tripinfo id="f_1_3.6" depart="229.00" departLane="C0C1_0" departPos="5.10" departSpeed="0.00" departDelay="5.00" arrival="359.00" arrivalLane="C2C3_0" arrivalPos="492.80" arrivalSpeed="12.37" duration="130.00" routeLength="1495.00" waitingTime="0.00" waitingCount="0" stopTime="0.00" timeLoss="10.22" rerouteNo="0" devices="tripinfo_f_1_3.6 emissions_f_1_3.6" vType="DEFAULT_VEHTYPE" speedFactor="0.90" vaporized="">
        <emissions CO_abs="2883.160250" CO2_abs="300473.206691" HC_abs="19.760219" PMx_abs="3.712158" NOx_abs="110.733279" fuel_abs="95837.975255" electricity_abs="0"/>
    </tripinfo>
    <tripinfo id="f_1_3.7" depart="232.00" departLane="C0C1_0" departPos="5.10" departSpeed="0.00" departDelay="2.00" arrival="361.00" arrivalLane="C2C3_0" arrivalPos="492.80" arrivalSpeed="14.23" duration="129.00" routeLength="1495.00" waitingTime="0.00" waitingCount="0" stopTime="0.00" timeLoss="29.78" rerouteNo="0" devices="tripinfo_f_1_3.7 emissions_f_1_3.7" vType="DEFAULT_VEHTYPE" speedFactor="1.09" vaporized="">
        <emissions CO_abs="3993.087720" CO2_abs="343840.247411" HC_abs="25.906218" PMx_abs="5.203903" NOx_abs="133.566019" fuel_abs="109669.495065" electricity_abs="0"/>
    </tripinfo>
    <tripinfo id="f_1_3.8" depart="235.00" departLane="C0C1_0" departPos="5.10" departSpeed="0.00" departDelay="0.00" arrival="363.00" arrivalLane="C2C3_0" arrivalPos="492.80" arrivalSpeed="13.21" duration="128.00" routeLength="1495.00" waitingTime="0.00" waitingCount="0" stopTime="0.00" timeLoss="19.33" rerouteNo="0" devices="tripinfo_f_1_3.8 emissions_f_1_3.8" vType="DEFAULT_VEHTYPE" speedFactor="1.00" vaporized="">
        <emissions CO_abs="4208.090199" CO2_abs="357745.668227" HC_abs="27.247331" PMx_abs="5.620858" NOx_abs="140.307684" fuel_abs="114104.489706" electricity_abs="0"/>
    </tripinfo>
    <tripinfo id="f_1_0.1" depart="230.00" departLane="A2B2_0" departPos="5.10" departSpeed="0.00" departDelay="0.00" arrival="367.00" arrivalLane="C2D2_0" arrivalPos="492.80" arrivalSpeed="12.80" duration="137.00" routeLength="1495.00" waitingTime="11.00" waitingCount="1" stopTime="0.00" timeLoss="24.09" rerouteNo="0" devices="tripinfo_f_1_0.1 emissions_f_1_0.1" vType="DEFAULT_VEHTYPE" speedFactor="0.96" vaporized="">
        <emissions CO_abs="5142.403989" CO2_abs="349421.443378" HC_abs="30.649329" PMx_abs="4.924726" NOx_abs="131.665233" fuel_abs="111450.800445" electricity_abs="0"/>
    </tripinfo>
    <tripinfo id="f_1_0.2" depart="233.00" departLane="A2B2_0" departPos="5.10" departSpeed="0.00" departDelay="2.00" arrival="369.00" arrivalLane="C2D2_0" arrivalPos="492.80" arrivalSpeed="13.31" duration="136.00" routeLength="1495.00" waitingTime="11.00" waitingCount="1" stopTime="0.00" timeLoss="31.47" rerouteNo="0" devices="tripinfo_f_1_0.2 emissions_f_1_0.2" vType="DEFAULT_VEHTYPE" speedFactor="1.04" vaporized="">
        <emissions CO_abs="5647.414130" CO2_abs="362088.548658" HC_abs="33.465184" PMx_abs="5.513430" NOx_abs="139.592397" fuel_abs="115490.767200" electricity_abs="0"/>
    </tripinfo>
    <tripinfo id="f_1_2.2" depart="238.00" departLane="E2D2_0" departPos="5.10" departSpeed="0.00" departDelay="0.00" arrival="370.00" arrivalLane="C2B2_0" arrivalPos="492.80" arrivalSpeed="11.63" duration="132.00" routeLength="1495.00" waitingTime="0.00" waitingCount="0" stopTime="0.00" timeLoss="8.81" rerouteNo="0" devices="tripinfo_f_1_2.2 emissions_f_1_2.2" vType="DEFAULT_VEHTYPE" speedFactor="0.88" vaporized="">