<?xml version="1.0" encoding="UTF-8"?>

<!-- generated on 2024-08-22 12:40:05 by Eclipse SUMO sumo Version 1.17.0
<configuration xmlns:xsi="http://www.w3.org/2001/XMLSchema-instance" xsi:noNamespaceSchemaLocation="http://sumo.dlr.de/xsd/sumoConfiguration.xsd">

    <input>
        <net-file value="single_no_lights.net.xml"/>
        <route-files value="single_2.rou.xml"/>
    </input>

    <output>
        <tripinfo-output value="emissions_test\z_no_lights_2_emissions_tripinfo_single.xml"/>
    </output>

    <processing>
        <time-to-teleport value="-1"/>
    </processing>

    <emissions>
        <device.emissions.probability value="1.0"/>
    </emissions>

    <traci_server>
        <remote-port value="57262"/>
    </traci_server>

</configuration>
-->

<tripinfos xmlns:xsi="http://www.w3.org/2001/XMLSchema-instance" xsi:noNamespaceSchemaLocation="http://sumo.dlr.de/xsd/tripinfo_file.xsd">
    <tripinfo id="f_0_0.0" depart="2.00" departLane="A2B2_0" departPos="5.10" departSpeed="0.00" departDelay="0.00" arrival="114.00" arrivalLane="C2D2_0" arrivalPos="492.80" arrivalSpeed="13.94" duration="112.00" routeLength="1495.00" waitingTime="0.00" waitingCount="0" stopTime="0.00" timeLoss="9.76" rerouteNo="0" devices="tripinfo_f_0_0.0 emissions_f_0_0.0" vType="DEFAULT_VEHTYPE" speedFactor="1.06" vaporized="">
        <emissions CO_abs="2730.694374" CO2_abs="311471.545235" HC_abs="18.751283" PMx_abs="4.250758" NOx_abs="115.092563" fuel_abs="99345.356650" electricity_abs="0"/>
    </tripinfo>
    <tripinfo id="f_0_0.1" depart="5.00" departLane="A2B2_0" departPos="5.10" departSpeed="0.00" departDelay="0.00" arrival="130.00" arrivalLane="C2D2_0" arrivalPos="492.80" arrivalSpeed="12.06" duration="125.00" routeLength="1495.00" waitingTime="0.00" waitingCount="0" stopTime="0.00" timeLoss="10.10" rerouteNo="0" devices="tripinfo_f_0_0.1 emissions_f_0_0.1" vType="DEFAULT_VEHTYPE" speedFactor="0.94" vaporized="">
        <emissions CO_abs="2912.683729" CO2_abs="296301.316039" HC_abs="19.588911" PMx_abs="3.930588" NOx_abs="110.256829" fuel_abs="94507.086567" electricity_abs="0"/>
    </tripinfo>
    <tripinfo id="f_0_0.2" depart="10.00" departLane="A2B2_0" departPos="5.10" departSpeed="0.00" departDelay="0.00" arrival="132.00" arrivalLane="C2D2_0" arrivalPos="492.80" arrivalSpeed="13.43" duration="122.00" routeLength="1495.00" waitingTime="0.00" waitingCount="0" stopTime="0.00" timeLoss="15.00" rerouteNo="0" devices="tripinfo_f_0_0.2 emissions_f_0_0.2" vType="DEFAULT_VEHTYPE" speedFactor="1.01" vaporized="">
        <emissions CO_abs="3515.718635" CO2_abs="334706.514794" HC_abs="23.299251" PMx_abs="4.916147" NOx_abs="127.868273" fuel_abs="106756.225730" electricity_abs="0"/>
    </tripinfo>
    <tripinfo id="f_0_0.3" depart="16.00" departLane="A2B2_0" departPos="5.10" departSpeed="0.00" departDelay="0.00" arrival="134.00" arrivalLane="C2D2_0" arrivalPos="492.80" arrivalSpeed="14.75" duration="118.00" routeLength="1495.00" waitingTime="0.00" waitingCount="0" stopTime="0.00" timeLoss="17.65" rerouteNo="0" devices="tripinfo_f_0_0.3 emissions_f_0_0.3" vType="DEFAULT_VEHTYPE" speedFactor="1.08" vaporized="">
        <emissions CO_abs="3668.574257" CO2_abs="341184.666812" HC_abs="24.168666" PMx_abs="5.264962" NOx_abs="131.679455" fuel_abs="108822.218678" electricity_abs="0"/>
    </tripinfo>
    <tripinfo id="f_0_0.4" depart="20.00" departLane="A2B2_0" departPos="5.10" departSpeed="0.00" departDelay="0.00" arrival="135.00" arrivalLane="C2D2_0" arrivalPos="492.80" arrivalSpeed="13.38" duration="115.00" routeLength="1495.00" waitingTime="0.00" waitingCount="0" stopTime="0.00" timeLoss="10.37" rerouteNo="0" devices="tripinfo_f_0_0.4 emissions_f_0_0.4" vType="DEFAULT_VEHTYPE" speedFactor="1.03" vaporized="">
        <emissions CO_abs="2828.094079" CO2_abs="308302.069892" HC_abs="19.389130" PMx_abs="4.267347" NOx_abs="114.878231" fuel_abs="98334.478027" electricity_abs="0"/>
    </tripinfo>
    <tripinfo id="f_0_1.0" depart="27.00" departLane="C4C3_0" departPos="5.10" departSpeed="0.00" departDelay="0.00" arrival="138.00" arrivalLane="C2C1_0" arrivalPos="492.80" arrivalSpeed="13.72" duration="111.00" routeLength="1495.00" waitingTime="0.00" waitingCount="0" stopTime="0.00" timeLoss="7.62" rerouteNo="0" devices="tripinfo_f_0_1.0 emissions_f_0_1.0" vType="DEFAULT_VEHTYPE" speedFactor="1.05" vaporized="">
        <emissions CO_abs="2269.637542" CO2_abs="287027.920160" HC_abs="16.280407" PMx_abs="3.773780" NOx_abs="105.050005" fuel_abs="91549.006202" electricity_abs="0"/>
    </tripinfo>
    <tripinfo id="f_0_1.1" depart="30.00" departLane="C4C3_0" departPos="5.10" departSpeed="0.00" departDelay="1.00" arrival="154.00" arrivalLane="C2C1_0" arrivalPos="492.80" arrivalSpeed="12.33" duration="124.00" routeLength="1495.00" waitingTime="0.00" waitingCount="0" stopTime="0.00" timeLoss="8.37" rerouteNo="0" devices="tripinfo_f_0_1.1 emissions_f_0_1.1" vType="DEFAULT_VEHTYPE" speedFactor="0.94" vaporized="">
        <emissions CO_abs="2550.575210" CO2_abs="287606.838683" HC_abs="17.542787" PMx_abs="3.565499" NOx_abs="105.047411" fuel_abs="91734.033940" electricity_abs="0"/>
    </tripinfo>
    <tripinfo id="f_0_1.2" depart="42.00" departLane="C4C3_0" departPos="5.10" departSpeed="0.00" departDelay="0.00" arrival="155.00" arrivalLane="C2C1_0" arrivalPos="492.80" arrivalSpeed="13.76" duration="113.00" routeLength="1495.00" waitingTime="0.00" waitingCount="0" stopTime="0.00" timeLoss="7.92" rerouteNo="0" devices="tripinfo_f_0_1.2 emissions_f_0_1.2" vType="DEFAULT_VEHTYPE" speedFactor="1.03" vaporized="">
        <emissions CO_abs="2446.173367" CO2_abs="292012.631759" HC_abs="17.210274" PMx_abs="3.889944" NOx_abs="107.461305" fuel_abs="93138.916190" electricity_abs="0"/>
    </tripinfo>
    <tripinfo id="f_0_1.3" depart="45.00" departLane="C4C3_0" departPos="5.10" departSpeed="0.00" departDelay="0.00" arrival="157.00" arrivalLane="C2C1_0" arrivalPos="492.80" arrivalSpeed="15.39" duration="112.00" routeLength="1495.00" waitingTime="0.00" waitingCount="0" stopTime="0.00" timeLoss="15.52" rerouteNo="0" devices="tripinfo_f_0_1.3 emissions_f_0_1.3" vType="DEFAULT_VEHTYPE" speedFactor="1.12" vaporized="">
        <emissions CO_abs="3332.285847" CO2_abs="335648.804314" HC_abs="22.372373" PMx_abs="5.105014" NOx_abs="128.420814" fuel_abs="107056.471146" electricity_abs="0"/>
    </tripinfo>
    <tripinfo id="f_0_2.0" depart="45.00" departLane="E2D2_0" departPos="5.10" departSpeed="0.00" departDelay="0.00" arrival="164.00" arrivalLane="C2B2_0" arrivalPos="492.80" arrivalSpeed="12.89" duration="119.00" routeLength="1495.00" waitingTime="0.00" waitingCount="0" stopTime="0.00" timeLoss="9.66" rerouteNo="0" devices="tripinfo_f_0_2.0 emissions_f_0_2.0" vType="DEFAULT_VEHTYPE" speedFactor="0.99" vaporized="">
        <emissions CO_abs="2891.392674" CO2_abs="304792.781370" HC_abs="19.578232" PMx_abs="4.206823" NOx_abs="113.909384" fuel_abs="97215.231302" electricity_abs="0"/>
    </tripinfo>
    <tripinfo id="f_0_0.5" depart="25.00" departLane="A2B2_0" departPos="5.10" departSpeed="0.00" departDelay="0.00" arrival="171.00" arrivalLane="C2D2_0" arrivalPos="492.80" arrivalSpeed="11.28" duration="146.00" routeLength="1495.00" waitingTime="0.00" waitingCount="0" stopTime="0.00" timeLoss="15.84" rerouteNo="0" devices="tripinfo_f_0_0.5 emissions_f_0_0.5" vType="DEFAULT_VEHTYPE" speedFactor="0.83" vaporized="">
        <emissions CO_abs="4271.501534" CO2_abs="326138.164128" HC_abs="26.852041" PMx_abs="4.389990" NOx_abs="123.932316" fuel_abs="104024.222698" electricity_abs="0"/>
    </tripinfo>
    <tripinfo id="f_0_0.6" depart="29.00" departLane="A2B2_0" departPos="5.10" departSpeed="0.00" departDelay="0.00" arrival="173.00" arrivalLane="C2D2_0" arrivalPos="492.80" arrivalSpeed="11.20" duration="144.00" routeLength="1495.00" waitingTime="0.00" waitingCount="0" stopTime="0.00" timeLoss="21.67" rerouteNo="0" devices="tripinfo_f_0_0.6 emissions_f_0_0.6" vType="DEFAULT_VEHTYPE" speedFactor="0.89" vaporized="">
        <emissions CO_abs="4850.690167" CO2_abs="358875.994716" HC_abs="30.374988" PMx_abs="5.425348" NOx_abs="140.551216" fuel_abs="114465.589412" electricity_abs="0"/>
    </tripinfo>
    <tripinfo id="f_0_0.7" depart="34.00" departLane="A2B2_0" departPos="5.10" departSpeed="0.00" departDelay="0.00" arrival="175.00" arrivalLane="C2D2_0" arrivalPos="492.80" arrivalSpeed="11.23" duration="141.00" routeLength="1495.00" waitingTime="0.00" waitingCount="0" stopTime="0.00" timeLoss="14.48" rerouteNo="0" devices="tripinfo_f_0_0.7 emissions_f_0_0.7" vType="DEFAULT_VEHTYPE" speedFactor="0.86" vaporized="">
        <emissions CO_abs="3833.723950" CO2_abs="322832.443806" HC_abs="24.781987" PMx_abs="4.329348" NOx_abs="122.130003" fuel_abs="102969.648599" electricity_abs="0"/>
    </tripinfo>
    <tripinfo id="f_0_0.8" depart="41.00" departLane="A2B2_0" departPos="5.10" departSpeed="0.00" departDelay="0.00" arrival="176.00" arrivalLane="C2D2_0" arrivalPos="492.80" arrivalSpeed="12.25" duration="135.00" routeLength="1495.00" waitingTime="6.00" waitingCount="1" stopTime="0.00" timeLoss="36.20" rerouteNo="0" devices="tripinfo_f_0_0.8 emissions_f_0_0.8" vType="DEFAULT_VEHTYPE" speedFactor="1.09" vaporized="">
        <emissions CO_abs="5759.994866" CO2_abs="378989.511783" HC_abs="34.606918" PMx_abs="6.218395" NOx_abs="149.992729" fuel_abs="120880.784415" electricity_abs="0"/>
    </tripinfo>
    <tripinfo id="f_0_2.1" depart="50.00" departLane="E2D2_0" departPos="5.10" departSpeed="0.00" departDelay="0.00" arrival="177.00" arrivalLane="C2B2_0" arrivalPos="492.80" arrivalSpeed="12.64" duration="127.00" routeLength="1495.00" waitingTime="0.00" waitingCount="0" stopTime="0.00" timeLoss="10.25" rerouteNo="0" devices="tripinfo_f_0_2.1 emissions_f_0_2.1" vType="DEFAULT_VEHTYPE" speedFactor="0.93" vaporized="">
        <emissions CO_abs="3111.211327" CO2_abs="312429.438976" HC_abs="20.884470" PMx_abs="4.165106" NOx_abs="116.624891" fuel_abs="99651.237541" electricity_abs="0"/>
    </tripinfo>
    <tripinfo id="f_0_0.9" depart="44.00" departLane="A2B2_0" departPos="5.10" departSpeed="0.00" departDelay="0.00" arrival="178.00" arrivalLane="C2D2_0" arrivalPos="492.80" arrivalSpeed="14.17" duration="134.00" routeLength="1495.00" waitingTime="6.00" waitingCount="1" stopTime="0.00" timeLoss="30.70" rerouteNo="0" devices="tripinfo_f_0_0.9 emissions_f_0_0.9" vType="DEFAULT_VEHTYPE" speedFactor="1.05" vaporized="">
        <emissions CO_abs="5785.219587" CO2_abs="394249.204304" HC_abs="35.183809" PMx_abs="6.479215" NOx_abs="156.136374" fuel_abs="125747.839214" electricity_abs="0"/>
    </tripinfo>
    <tripinfo id="f_0_0.10" depart="59.00" departLane="A2B2_0" departPos="5.10" departSpeed="0.00" departDelay="0.00" arrival="180.00" arrivalLane="C2D2_0" arrivalPos="492.80" arrivalSpeed="15.64" duration="121.00" routeLength="1495.00" waitingTime="0.00" waitingCount="0" stopTime="0.00" timeLoss="27.18" rerouteNo="0" devices="tripinfo_f_0_0.10 emissions_f_0_0.10" vType="DEFAULT_VEHTYPE" speedFactor="1.16" vaporized="">
        <emissions CO_abs="4803.651136" CO2_abs="387170.595852" HC_abs="30.506956" PMx_abs="6.548850" NOx_abs="154.001698" fuel_abs="123489.307584" electricity_abs="0"/>
    </tripinfo>
    <tripinfo id="f_0_1.4" depart="51.00" departLane="C4C3_0" departPos="5.10" departSpeed="0.00" departDelay="0.00" arrival="183.00" arrivalLane="C2C1_0" arrivalPos="492.80" arrivalSpeed="11.06" duration="132.00" routeLength="1495.00" waitingTime="0.00" waitingCount="0" stopTime="0.00" timeLoss="9.02" rerouteNo="0" devices="tripinfo_f_0_1.4 emissions_f_0_1.4" vType="DEFAULT_VEHTYPE" speedFactor="0.88" vaporized="">
        <emissions CO_abs="2778.614844" CO2_abs="288248.229052" HC_abs="19.089969" PMx_abs="3.503075" NOx_abs="106.008386" fuel_abs="91938.812695" electricity_abs="0"/>
    </tripinfo>
    <tripinfo id="f_0_2.2" depart="65.00" departLane="E2D2_0" departPos="5.10" departSpeed="0.00" departDelay="0.00" arrival="183.00" arrivalLane="C2B2_0" arrivalPos="492.80" arrivalSpeed="13.37" duration="118.00" routeLength="1495.00" waitingTime="0.00" waitingCount="0" stopTime="0.00" timeLoss="10.86" rerouteNo="0" devices="tripinfo_f_0_2.2 emissions_f_0_2.2" vType="DEFAULT_VEHTYPE" speedFactor="1.01" vaporized="">
        <emissions CO_abs="2749.557303" CO2_abs="299515.644798" HC_abs="18.651606" PMx_abs="3.978273" NOx_abs="110.585506" fuel_abs="95532.172250" electricity_abs="0"/>
    </tripinfo>
    <tripinfo id="f_0_1.5" depart="56.00" departLane="C4C3_0" departPos="5.10" departSpeed="0.00" departDelay="0.00" arrival="185.00" arrivalLane="C2C1_0" arrivalPos="492.80" arrivalSpeed="12.42" duration="129.00" routeLength="1495.00" waitingTime="0.00" waitingCount="0" stopTime="0.00" timeLoss="13.86" rerouteNo="0" devices="tripinfo_f_0_1.5 emissions_f_0_1.5" vType="DEFAULT_VEHTYPE" speedFactor="0.94" vaporized="">
        <emissions CO_abs="3313.642247" CO2_abs="311131.889652" HC_abs="22.062078" PMx_abs="4.339693" NOx_abs="118.146464" fuel_abs="99237.260831" electricity_abs="0"/>
    </tripinfo>
    <tripinfo id="f_0_1.6" depart="59.00" departLane="C4C3_0" departPos="5.10" departSpeed="0.00" departDelay="1.00" arrival="186.00" arrivalLane="C2C1_0" arrivalPos="492.80" arrivalSpeed="12.14" duration="127.00" routeLength="1495.00" waitingTime="0.00" waitingCount="0" stopTime="0.00" timeLoss="11.96" rerouteNo="0" devices="tripinfo_f_0_1.6 emissions_f_0_1.6" vType="DEFAULT_VEHTYPE" speedFactor="0.94" vaporized="">
        <emissions CO_abs="2971.379008" CO2_abs="302582.374755" HC_abs="19.963970" PMx_abs="3.926068" NOx_abs="112.202704" fuel_abs="96510.559677" electricity_abs="0"/>
    </tripinfo>
    <tripinfo id="f_0_1.7" depart="62.00" departLane="C4C3_0" departPos="5.10" departSpeed="0.00" departDelay="2.00" arrival="188.00" arrivalLane="C2C1_0" arrivalPos="492.80" arrivalSpeed="13.40" duration="126.00" routeLength="1495.00" waitingTime="2.00" waitingCount="1" stopTime="0.00" timeLoss="19.92" rerouteNo="0" devices="tripinfo_f_0_1.7 emissions_f_0_1.7" vType="DEFAULT_VEHTYPE" speedFactor="1.02" vaporized="">
        <emissions CO_abs="4378.864251" CO2_abs="350434.387248" HC_abs="27.707941" PMx_abs="5.464710" NOx_abs="136.359697" fuel_abs="111772.761899" electricity_abs="0"/>
    </tripinfo>
    <tripinfo id="f_0_2.3" depart="68.00" departLane="E2D2_0" departPos="5.10" departSpeed="0.00" departDelay="1.00" arrival="191.00" arrivalLane="C2B2_0" arrivalPos="492.80" arrivalSpeed="13.19" duration="123.00" routeLength="1495.00" waitingTime="0.00" waitingCount="0" stopTime="0.00" timeLoss="12.00" rerouteNo="0" devices="tripinfo_f_0_2.3 emissions_f_0_2.3" vType="DEFAULT_VEHTYPE" speedFactor="0.97" vaporized="">
        <emissions CO_abs="2821.958679" CO2_abs="309060.842080" HC_abs="19.282892" PMx_abs="3.913312" NOx_abs="113.146923" fuel_abs="98576.892609" electricity_abs="0"/>
    </tripinfo>
    <tripinfo id="f_0_0.11" depart="71.00" departLane="A2B2_0" departPos="5.10" departSpeed="0.00" departDelay="0.00" arrival="202.00" arrivalLane="C2D2_0" arrivalPos="492.80" arrivalSpeed="12.07" duration="131.00" routeLength="1495.00" waitingTime="0.00" waitingCount="0" stopTime="0.00" timeLoss="9.79" rerouteNo="0" devices="tripinfo_f_0_0.11 emissions_f_0_0.11" vType="DEFAULT_VEHTYPE" speedFactor="0.89" vaporized="">
        <emissions CO_abs="3048.662696" CO2_abs="304646.202738" HC_abs="20.651953" PMx_abs="3.894800" NOx_abs="113.217691" fuel_abs="97168.920378" electricity_abs="0"/>
    </tripinfo>
    <tripinfo id="f_0_3.0" depart="80.00" departLane="C0C1_0" departPos="5.10" departSpeed="0.00" departDelay="0.00" arrival="202.00" arrivalLane="C2C3_0" arrivalPos="492.80" arrivalSpeed="12.40" duration="122.00" routeLength="1495.00" waitingTime="0.00" waitingCount="0" stopTime="0.00" timeLoss="8.20" rerouteNo="0" devices="tripinfo_f_0_3.0 emissions_f_0_3.0" vType="DEFAULT_VEHTYPE" speedFactor="0.95" vaporized="">
        <emissions CO_abs="2522.932285" CO2_abs="287297.417671" HC_abs="17.564930" PMx_abs="3.657042" NOx_abs="105.663640" fuel_abs="91635.227912" electricity_abs="0"/>
    </tripinfo>
    <tripinfo id="f_0_3.1" depart="85.00" departLane="C0C1_0" departPos="5.10" departSpeed="0.00" departDelay="0.00" arrival="204.00" arrivalLane="C2C3_0" arrivalPos="492.80" arrivalSpeed="15.60" duration="119.00" routeLength="1495.00" waitingTime="0.00" waitingCount="0" stopTime="0.00" timeLoss="26.94" rerouteNo="0" devices="tripinfo_f_0_3.1 emissions_f_0_3.1" vType="DEFAULT_VEHTYPE" speedFactor="1.18" vaporized="">
        <emissions CO_abs="3690.958924" CO2_abs="337346.897167" HC_abs="24.272604" PMx_abs="5.217088" NOx_abs="130.666079" fuel_abs="107598.162769" electricity_abs="0"/>
    </tripinfo>
    <tripinfo id="f_0_3.2" depart="88.00" departLane="C0C1_0" departPos="5.10" departSpeed="0.00" departDelay="2.00" arrival="205.00" arrivalLane="C2C3_0" arrivalPos="492.80" arrivalSpeed="15.43" duration="117.00" routeLength="1495.00" waitingTime="0.00" waitingCount="0" stopTime="0.00" timeLoss="23.60" rerouteNo="0" devices="tripinfo_f_0_3.2 emissions_f_0_3.2" vType="DEFAULT_VEHTYPE" speedFactor="1.15" vaporized="">
        <emissions CO_abs="3946.790369" CO2_abs="349976.674895" HC_abs="25.790796" PMx_abs="5.656001" NOx_abs="137.339325" fuel_abs="111626.280558" electricity_abs="0"/>
    </tripinfo>
    <tripinfo id="f_0_1.8" depart="73.00" departLane="C4C3_0" departPos="5.10" departSpeed="0.00" departDelay="0.00" arrival="206.00" arrivalLane="C2C1_0" arrivalPos="492.80" arrivalSpeed="11.05" duration="133.00" routeLength="1495.00" waitingTime="0.00" waitingCount="0" stopTime="0.00" timeLoss="9.52" rerouteNo="0" devices="tripinfo_f_0_1.8 emissions_f_0_1.8" vType="DEFAULT_VEHTYPE" speedFactor="0.87" vaporized="">
        <emissions CO_abs="2895.183362" CO2_abs="296828.152350" HC_abs="19.807881" PMx_abs="3.571085" NOx_abs="108.953915" fuel_abs="94675.502741" electricity_abs="0"/>
    </tripinfo>
    <tripinfo id="f_0_3.3" depart="91.00" departLane="C0C1_0" departPos="5.10" departSpeed="0.00" departDelay="4.00" arrival="207.00" arrivalLane="C2C3_0" arrivalPos="492.80" arrivalSpeed="15.56" duration="116.00" routeLength="1495.00" waitingTime="0.00" waitingCount="0" stopTime="0.00" timeLoss="23.67" rerouteNo="0" devices="tripinfo_f_0_3.3 emissions_f_0_3.3" vType="DEFAULT_VEHTYPE" speedFactor="1.17" vaporized="">
        <emissions CO_abs="4050.691849" CO2_abs="349960.960028" HC_abs="26.290294" PMx_abs="5.829576" NOx_abs="138.396599" fuel_abs="111621.124161" electricity_abs="0"/>
    </tripinfo>
    <tripinfo id="f_0_1.9" depart="80.00" departLane="C4C3_0" departPos="5.10" departSpeed="0.00" departDelay="0.00" arrival="208.00" arrivalLane="C2C1_0" arrivalPos="492.80" arrivalSpeed="11.94" duration="128.00" routeLength="1495.00" waitingTime="0.00" waitingCount="0" stopTime="0.00" timeLoss="10.16" rerouteNo="0" devices="tripinfo_f_0_1.9 emissions_f_0_1.9" vType="DEFAULT_VEHTYPE" speedFactor="0.92" vaporized="">
        <emissions CO_abs="3136.619289" CO2_abs="309007.154862" HC_abs="21.002437" PMx_abs="4.153116" NOx_abs="115.935343" fuel_abs="98559.658134" electricity_abs="0"/>
    </tripinfo>
    <tripinfo id="f_0_1.10" depart="85.00" departLane="C4C3_0" departPos="5.10" departSpeed="0.00" departDelay="0.00" arrival="210.00" arrivalLane="C2C1_0" arrivalPos="492.80" arrivalSpeed="12.15" duration="125.00" routeLength="1495.00" waitingTime="0.00" waitingCount="0" stopTime="0.00" timeLoss="9.44" rerouteNo="0" devices="tripinfo_f_0_1.10 emissions_f_0_1.10" vType="DEFAULT_VEHTYPE" speedFactor="0.93" vaporized="">
        <emissions CO_abs="2433.175436" CO2_abs="284546.513579" HC_abs="17.122391" PMx_abs="3.333521" NOx_abs="102.715505" fuel_abs="90758.118488" electricity_abs="0"/>
    </tripinfo>
    <tripinfo id="f_0_3.4" depart="94.00" departLane="C0C1_0" departPos="5.10" departSpeed="0.00" departDelay="5.00" arrival="211.00" arrivalLane="C2C3_0" arrivalPos="492.80" arrivalSpeed="12.60" duration="117.00" routeLength="1495.00" waitingTime="0.00" waitingCount="0" stopTime="0.00" timeLoss="8.26" rerouteNo="0" devices="tripinfo_f_0_3.4 emissions_f_0_3.4" vType="DEFAULT_VEHTYPE" speedFactor="0.99" vaporized="">
        <emissions CO_abs="2190.271145" CO2_abs="281963.335384" HC_abs="15.695099" PMx_abs="3.434833" NOx_abs="101.728942" fuel_abs="89933.906413" electricity_abs="0"/>
    </tripinfo>
    <tripinfo id="f_0_1.11" depart="88.00" departLane="C4C3_0" departPos="5.10" departSpeed="0.00" departDelay="1.00" arrival="212.00" arrivalLane="C2C1_0" arrivalPos="492.80" arrivalSpeed="13.59" duration="124.00" routeLength="1495.00" waitingTime="0.00" waitingCount="0" stopTime="0.00" timeLoss="16.54" rerouteNo="0" devices="tripinfo_f_0_1.11 emissions_f_0_1.11" vType="DEFAULT_VEHTYPE" speedFactor="1.01" vaporized="">
        <emissions CO_abs="3290.806715" CO2_abs="320437.789767" HC_abs="21.874764" PMx_abs="4.518808" NOx_abs="121.265983" fuel_abs="102205.318039" electricity_abs="0"/>
    </tripinfo>
    <tripinfo id="f_0_3.5" depart="97.00" departLane="C0C1_0" departPos="5.10" departSpeed="0.00" departDelay="2.00" arrival="212.00" arrivalLane="C2C3_0" arrivalPos="492.80" arrivalSpeed="15.12" duration="115.00" routeLength="1495.00" waitingTime="0.00" waitingCount="0" stopTime="0.00" timeLoss="23.77" rerouteNo="0" devices="tripinfo_f_0_3.5 emissions_f_0_3.5" vType="DEFAULT_VEHTYPE" speedFactor="1.18" vaporized="">
        <emissions CO_abs="3034.543343" CO2_abs="308154.674696" HC_abs="20.536858" PMx_abs="4.516060" NOx_abs="117.111165" fuel_abs="98287.298485" electricity_abs="0"/>
    </tripinfo>
    <tripinfo id="f_0_1.12" depart="91.00" departLane="C4C3_0" departPos="5.10" departSpeed="0.00" departDelay="1.00" arrival="214.00" arrivalLane="C2C1_0" arrivalPos="492.80" arrivalSpeed="13.53" duration="123.00" routeLength="1495.00" waitingTime="0.00" waitingCount="0" stopTime="0.00" timeLoss="16.80" rerouteNo="0" devices="tripinfo_f_0_1.12 emissions_f_0_1.12" vType="DEFAULT_VEHTYPE" speedFactor="1.02" vaporized="">
        <emissions CO_abs="3944.561053" CO2_abs="342864.198806" HC_abs="25.594942" PMx_abs="5.438135" NOx_abs="134.277912" fuel_abs="109357.880754" electricity_abs="0"/>
    </tripinfo>
    <tripinfo id="f_0_2.4" depart="97.00" departLane="E2D2_0" departPos="5.10" departSpeed="0.00" departDelay="0.00" arrival="215.00" arrivalLane="C2B2_0" arrivalPos="492.80" arrivalSpeed="14.11" duration="118.00" routeLength="1495.00" waitingTime="0.00" waitingCount="0" stopTime="0.00" timeLoss="13.15" rerouteNo="0" devices="tripinfo_f_0_2.4 emissions_f_0_2.4" vType="DEFAULT_VEHTYPE" speedFactor="1.03" vaporized="">
        <emissions CO_abs="2983.961678" CO2_abs="307216.965318" HC_abs="19.866680" PMx_abs="4.225292" NOx_abs="114.053089" fuel_abs="97988.499318" electricity_abs="0"/>
    </tripinfo>
    <tripinfo id="f_0_0.12" depart="74.00" departLane="A2B2_0" departPos="5.10" departSpeed="0.00" departDelay="2.00" arrival="225.00" arrivalLane="C2D2_0" arrivalPos="492.80" arrivalSpeed="11.30" duration="151.00" routeLength="1495.00" waitingTime="5.00" waitingCount="1" stopTime="0.00" timeLoss="19.84" rerouteNo="0" devices="tripinfo_f_0_0.12 emissions_f_0_0.12" vType="DEFAULT_VEHTYPE" speedFactor="0.83" vaporized="">
        <emissions CO_abs="5134.759790" CO2_abs="348260.048719" HC_abs="31.266253" PMx_abs="4.674052" NOx_abs="132.055001" fuel_abs="111080.562668" electricity_abs="0"/>
    </tripinfo>
    <tripinfo id="f_0_0.13" depart="81.00" departLane="A2B2_0" departPos="5.10" departSpeed="0.00" departDelay="0.00" arrival="226.00" arrivalLane="C2D2_0" arrivalPos="492.80" arrivalSpeed="12.90" duration="145.00" routeLength="1495.00" waitingTime="7.00" waitingCount="2" stopTime="0.00" timeLoss="49.78" rerouteNo="0" devices="tripinfo_f_0_0.13 emissions_f_0_0.13" vType="DEFAULT_VEHTYPE" speedFactor="1.13" vaporized="">
        <emissions CO_abs="6599.572249" CO2_abs="401687.650863" HC_abs="39.140391" PMx_abs="6.515333" NOx_abs="159.226110" fuel_abs="128120.894094" electricity_abs="0"/>
    </tripinfo>
    <tripinfo id="f_0_1.13" depart="96.00" departLane="C4C3_0" departPos="5.10" departSpeed="0.00" departDelay="0.00" arrival="226.00" arrivalLane="C2C1_0" arrivalPos="492.80" arrivalSpeed="12.15" duration="130.00" routeLength="1495.00" waitingTime="0.00" waitingCount="0" stopTime="0.00" timeLoss="9.89" rerouteNo="0" devices="tripinfo_f_0_1.13 emissions_f_0_1.13" vType="DEFAULT_VEHTYPE" speedFactor="0.90" vaporized="">
        <emissions CO_abs="2778.018260" CO2_abs="301398.078736" HC_abs="19.236065" PMx_abs="3.586370" NOx_abs="109.807735" fuel_abs="96133.092089" electricity_abs="0"/>
    </tripinfo>
    <tripinfo id="f_0_0.14" depart="95.00" departLane="A2B2_0" departPos="5.10" departSpeed="0.00" departDelay="0.00" arrival="228.00" arrivalLane="C2D2_0" arrivalPos="492.80" arrivalSpeed="12.57" duration="133.00" routeLength="1495.00" waitingTime="3.00" waitingCount="2" stopTime="0.00" timeLoss="22.25" rerouteNo="0" devices="tripinfo_f_0_0.14 emissions_f_0_0.14" vType="DEFAULT_VEHTYPE" speedFactor="0.97" vaporized="">
        <emissions CO_abs="4295.872596" CO2_abs="337265.264418" HC_abs="26.605899" PMx_abs="4.614877" NOx_abs="126.304035" fuel_abs="107573.206224" electricity_abs="0"/>
    </tripinfo>
    <tripinfo id="f_0_0.15" depart="98.00" departLane="A2B2_0" departPos="5.10" departSpeed="0.00" departDelay="2.00" arrival="230.00" arrivalLane="C2D2_0" arrivalPos="492.80" arrivalSpeed="14.74" duration="132.00" routeLength="1495.00" waitingTime="2.00" waitingCount="1" stopTime="0.00" timeLoss="33.81" rerouteNo="0" devices="tripinfo_f_0_0.15 emissions_f_0_0.15" vType="DEFAULT_VEHTYPE" speedFactor="1.10" vaporized="">
        <emissions CO_abs="5159.264437" CO2_abs="354987.867544" HC_abs="31.137877" PMx_abs="5.611963" NOx_abs="138.579032" fuel_abs="113225.458753" electricity_abs="0"/>
    </tripinfo>
    <tripinfo id="f_1_2.0" depart="153.00" departLane="E2D2_0" departPos="5.10" departSpeed="0.00" departDelay="0.00" arrival="260.00" arrivalLane="C2B2_0" arrivalPos="492.80" arrivalSpeed="13.97" duration="107.00" routeLength="1495.00" waitingTime="0.00" waitingCount="0" stopTime="0.00" timeLoss="8.19" rerouteNo="0" devices="tripinfo_f_1_2.0 emissions_f_1_2.0" vType="DEFAULT_VEHTYPE" speedFactor="1.09" vaporized="">
        <emissions CO_abs="2647.527150" CO2_abs="306047.919889" HC_abs="18.292057" PMx_abs="4.354645" NOx_abs="113.832936" fuel_abs="97615.277412" electricity_abs="0"/>
    </tripinfo>
    <tripinfo id="f_1_3.0" depart="152.00" departLane="C0C1_0" departPos="5.10" departSpeed="0.00" departDelay="0.00" arrival="273.00" arrivalLane="C2C3_0" arrivalPos="492.80" arrivalSpeed="12.55" duration="121.00" routeLength="1495.00" waitingTime="0.00" waitingCount="0" stopTime="0.00" timeLoss="8.48" rerouteNo="0" devices="tripinfo_f_1_3.0 emissions_f_1_3.0" vType="DEFAULT_VEHTYPE" speedFactor="0.96" vaporized="">
        <emissions CO_abs="2409.766480" CO2_abs="279907.414973" HC_abs="16.768069" PMx_abs="3.466817" NOx_abs="102.096249" fuel_abs="89278.212726" electricity_abs="0"/>
    </tripinfo>
    <tripinfo id="f_1_3.1" depart="160.00" departLane="C0C1_0" departPos="5.10" departSpeed="0.00" departDelay="0.00" arrival="275.00" arrivalLane="C2C3_0" arrivalPos="492.80" arrivalSpeed="14.47" duration="115.00" routeLength="1495.00" waitingTime="0.00" waitingCount="0" stopTime="0.00" timeLoss="11.40" rerouteNo="0" devices="tripinfo_f_1_3.1 emissions_f_1_3.1" vType="DEFAULT_VEHTYPE" speedFactor="1.04" vaporized="">
        <emissions CO_abs="2686.652538" CO2_abs="300180.085452" HC_abs="18.346232" PMx_abs="4.016639" NOx_abs="110.176874" fuel_abs="95744.050943" electricity_abs="0"/>
    </tripinfo>
    <tripinfo id="f_1_0.0" depart="155.00" departLane="A2B2_0" departPos="5.10" departSpeed="0.00" departDelay="0.00" arrival="276.00" arrivalLane="C2D2_0" arrivalPos="492.80" arrivalSpeed="13.59" duration="121.00" routeLength="1495.00" waitingTime="4.00" waitingCount="1" stopTime="0.00" timeLoss="16.73" rerouteNo="0" devices="tripinfo_f_1_0.0 emissions_f_1_0.0" vType="DEFAULT_VEHTYPE" speedFactor="1.04" vaporized="">
        <emissions CO_abs="3770.191027" CO2_abs="320821.594964" HC_abs="24.013885" PMx_abs="4.639798" NOx_abs="121.203461" fuel_abs="102327.923440" electricity_abs="0"/>
    </tripinfo>
    <tripinfo id="f_1_3.2" depart="163.00" departLane="C0C1_0" departPos="5.10" departSpeed="0.00" departDelay="1.00" arrival="280.00" arrivalLane="C2C3_0" arrivalPos="492.80" arrivalSpeed="13.34" duration="117.00" routeLength="1495.00" waitingTime="0.00" waitingCount="0" stopTime="0.00" timeLoss="8.76" rerouteNo="0" devices="tripinfo_f_1_3.2 emissions_f_1_3.2" vType="DEFAULT_VEHTYPE" speedFactor="1.00" vaporized="">
        <emissions CO_abs="2349.880644" CO2_abs="291684.042682" HC_abs="16.576257" PMx_abs="3.576935" NOx_abs="105.257151" fuel_abs="93034.404844" electricity_abs="0"/>
    </tripinfo>
    <tripinfo id="f_1_0.1" depart="162.00" departLane="A2B2_0" departPos="5.10" departSpeed="0.00" departDelay="0.00" arrival="281.00" arrivalLane="C2D2_0" arrivalPos="492.80" arrivalSpeed="14.15" duration="119.00" routeLength="1495.00" waitingTime="2.00" waitingCount="1" stopTime="0.00" timeLoss="19.65" rerouteNo="0" devices="tripinfo_f_1_0.1 emissions_f_1_0.1" vType="DEFAULT_VEHTYPE" speedFactor="1.09" vaporized="">
        <emissions CO_abs="4110.079763" CO2_abs="338585.900854" HC_abs="26.149876" PMx_abs="5.277569" NOx_abs="130.609844" fuel_abs="107993.611545" electricity_abs="0"/>
    </tripinfo>
    <tripinfo id="f_1_2.1" depart="163.00" departLane="E2D2_0" departPos="5.10" departSpeed="0.00" departDelay="0.00" arrival="293.00" arrivalLane="C2B2_0" arrivalPos="492.80" arrivalSpeed="11.84" duration="130.00" routeLength="1495.00" waitingTime="0.00" waitingCount="0" stopTime="0.00" timeLoss="10.07" rerouteNo="0" devices="tripinfo_f_1_2.1 emissions_f_1_2.1" vType="DEFAULT_VEHTYPE" speedFactor="0.90" vaporized="">