<?xml version="1.0" encoding="UTF-8"?>

<!-- generated on 2024-08-22 12:40:04 by Eclipse SUMO sumo Version 1.17.0
<configuration xmlns:xsi="http://www.w3.org/2001/XMLSchema-instance" xsi:noNamespaceSchemaLocation="http://sumo.dlr.de/xsd/sumoConfiguration.xsd">

    <input>
        <net-file value="single_no_lights.net.xml"/>
        <route-files value="single_1.rou.xml"/>
    </input>

    <output>
        <tripinfo-output value="emissions_test\z_no_lights_1_emissions_tripinfo_single.xml"/>
    </output>

    <processing>
        <time-to-teleport value="-1"/>
    </processing>

    <emissions>
        <device.emissions.probability value="1.0"/>
    </emissions>

    <traci_server>
        <remote-port value="57260"/>
    </traci_server>

</configuration>
-->

<tripinfos xmlns:xsi="http://www.w3.org/2001/XMLSchema-instance" xsi:noNamespaceSchemaLocation="http://sumo.dlr.de/xsd/tripinfo_file.xsd">
    <tripinfo id="f_0_0.0" depart="2.00" departLane="A2B2_0" departPos="5.10" departSpeed="0.00" departDelay="0.00" arrival="114.00" arrivalLane="C2D2_0" arrivalPos="492.80" arrivalSpeed="14.16" duration="112.00" routeLength="1495.00" waitingTime="0.00" waitingCount="0" stopTime="0.00" timeLoss="9.57" rerouteNo="0" devices="tripinfo_f_0_0.0 emissions_f_0_0.0" vType="DEFAULT_VEHTYPE" speedFactor="1.06" vaporized="">
        <emissions CO_abs="2896.742551" CO2_abs="318915.722603" HC_abs="19.738902" PMx_abs="4.510731" NOx_abs="118.906801" fuel_abs="101719.621593" electricity_abs="0"/>
    </tripinfo>
    <tripinfo id="f_0_0.1" depart="5.00" departLane="A2B2_0" departPos="5.10" departSpeed="0.00" departDelay="0.00" arrival="131.00" arrivalLane="C2D2_0" arrivalPos="492.80" arrivalSpeed="11.93" duration="126.00" routeLength="1495.00" waitingTime="0.00" waitingCount="0" stopTime="0.00" timeLoss="11.26" rerouteNo="0" devices="tripinfo_f_0_0.1 emissions_f_0_0.1" vType="DEFAULT_VEHTYPE" speedFactor="0.94" vaporized="">
        <emissions CO_abs="2795.681738" CO2_abs="304588.590163" HC_abs="19.114204" PMx_abs="3.761611" NOx_abs="111.093736" fuel_abs="97150.575834" electricity_abs="0"/>
    </tripinfo>
    <tripinfo id="f_0_0.2" depart="10.00" departLane="A2B2_0" departPos="5.10" departSpeed="0.00" departDelay="0.00" arrival="133.00" arrivalLane="C2D2_0" arrivalPos="492.80" arrivalSpeed="12.96" duration="123.00" routeLength="1495.00" waitingTime="0.00" waitingCount="0" stopTime="0.00" timeLoss="16.09" rerouteNo="0" devices="tripinfo_f_0_0.2 emissions_f_0_0.2" vType="DEFAULT_VEHTYPE" speedFactor="1.01" vaporized="">
        <emissions CO_abs="3638.511725" CO2_abs="337281.854825" HC_abs="23.923430" PMx_abs="5.002041" NOx_abs="129.290311" fuel_abs="107577.640360" electricity_abs="0"/>
    </tripinfo>
    <tripinfo id="f_0_0.3" depart="16.00" departLane="A2B2_0" departPos="5.10" departSpeed="0.00" departDelay="0.00" arrival="135.00" arrivalLane="C2D2_0" arrivalPos="492.80" arrivalSpeed="15.01" duration="119.00" routeLength="1495.00" waitingTime="0.00" waitingCount="0" stopTime="0.00" timeLoss="18.72" rerouteNo="0" devices="tripinfo_f_0_0.3 emissions_f_0_0.3" vType="DEFAULT_VEHTYPE" speedFactor="1.08" vaporized="">
        <emissions CO_abs="4129.715142" CO2_abs="356784.595665" HC_abs="26.567855" PMx_abs="5.757878" NOx_abs="139.428369" fuel_abs="113797.756827" electricity_abs="0"/>
    </tripinfo>
    <tripinfo id="f_0_0.4" depart="20.00" departLane="A2B2_0" departPos="5.10" departSpeed="0.00" departDelay="0.00" arrival="136.00" arrivalLane="C2D2_0" arrivalPos="492.80" arrivalSpeed="13.38" duration="116.00" routeLength="1495.00" waitingTime="0.00" waitingCount="0" stopTime="0.00" timeLoss="11.42" rerouteNo="0" devices="tripinfo_f_0_0.4 emissions_f_0_0.4" vType="DEFAULT_VEHTYPE" speedFactor="1.03" vaporized="">
        <emissions CO_abs="2947.560770" CO2_abs="311180.031709" HC_abs="19.849017" PMx_abs="4.314200" NOx_abs="116.104733" fuel_abs="99252.447326" electricity_abs="0"/>
    </tripinfo>
    <tripinfo id="f_0_1.0" depart="27.00" departLane="C4C3_0" departPos="5.10" departSpeed="0.00" departDelay="0.00" arrival="138.00" arrivalLane="C2C1_0" arrivalPos="492.80" arrivalSpeed="14.09" duration="111.00" routeLength="1495.00" waitingTime="0.00" waitingCount="0" stopTime="0.00" timeLoss="7.56" rerouteNo="0" devices="tripinfo_f_0_1.0 emissions_f_0_1.0" vType="DEFAULT_VEHTYPE" speedFactor="1.05" vaporized="">
        <emissions CO_abs="2240.849219" CO2_abs="288551.168564" HC_abs="16.075503" PMx_abs="3.734646" NOx_abs="104.957231" fuel_abs="92034.897579" electricity_abs="0"/>
    </tripinfo>
    <tripinfo id="f_0_2.0" depart="45.00" departLane="E2D2_0" departPos="5.10" departSpeed="0.00" departDelay="0.00" arrival="158.00" arrivalLane="C2B2_0" arrivalPos="492.80" arrivalSpeed="14.22" duration="113.00" routeLength="1495.00" waitingTime="0.00" waitingCount="0" stopTime="0.00" timeLoss="9.36" rerouteNo="0" devices="tripinfo_f_0_2.0 emissions_f_0_2.0" vType="DEFAULT_VEHTYPE" speedFactor="1.05" vaporized="">
        <emissions CO_abs="2713.391492" CO2_abs="307667.757894" HC_abs="18.776911" PMx_abs="4.271023" NOx_abs="114.661800" fuel_abs="98132.068152" electricity_abs="0"/>
    </tripinfo>
    <tripinfo id="f_0_2.1" depart="50.00" departLane="E2D2_0" departPos="5.10" departSpeed="0.00" departDelay="0.00" arrival="159.00" arrivalLane="C2B2_0" arrivalPos="492.80" arrivalSpeed="14.71" duration="109.00" routeLength="1495.00" waitingTime="0.00" waitingCount="0" stopTime="0.00" timeLoss="12.96" rerouteNo="0" devices="tripinfo_f_0_2.1 emissions_f_0_2.1" vType="DEFAULT_VEHTYPE" speedFactor="1.12" vaporized="">
        <emissions CO_abs="3242.334659" CO2_abs="331657.431858" HC_abs="21.560711" PMx_abs="4.937457" NOx_abs="125.121707" fuel_abs="105783.487175" electricity_abs="0"/>
    </tripinfo>
    <tripinfo id="f_0_0.5" depart="25.00" departLane="A2B2_0" departPos="5.10" departSpeed="0.00" departDelay="0.00" arrival="166.00" arrivalLane="C2D2_0" arrivalPos="492.80" arrivalSpeed="10.34" duration="141.00" routeLength="1495.00" waitingTime="0.00" waitingCount="0" stopTime="0.00" timeLoss="10.72" rerouteNo="0" devices="tripinfo_f_0_0.5 emissions_f_0_0.5" vType="DEFAULT_VEHTYPE" speedFactor="0.83" vaporized="">
        <emissions CO_abs="3399.056550" CO2_abs="309005.679446" HC_abs="22.438424" PMx_abs="3.779830" NOx_abs="114.409448" fuel_abs="98559.762029" electricity_abs="0"/>
    </tripinfo>
    <tripinfo id="f_0_0.6" depart="34.00" departLane="A2B2_0" departPos="5.10" departSpeed="0.00" departDelay="0.00" arrival="167.00" arrivalLane="C2D2_0" arrivalPos="492.80" arrivalSpeed="11.85" duration="133.00" routeLength="1495.00" waitingTime="0.00" waitingCount="0" stopTime="0.00" timeLoss="11.40" rerouteNo="0" devices="tripinfo_f_0_0.6 emissions_f_0_0.6" vType="DEFAULT_VEHTYPE" speedFactor="0.89" vaporized="">
        <emissions CO_abs="3453.095154" CO2_abs="318677.167137" HC_abs="22.677530" PMx_abs="4.269037" NOx_abs="119.791683" fuel_abs="101644.117508" electricity_abs="0"/>
    </tripinfo>
    <tripinfo id="f_0_1.1" depart="42.00" departLane="C4C3_0" departPos="5.10" departSpeed="0.00" departDelay="0.00" arrival="177.00" arrivalLane="C2C1_0" arrivalPos="492.80" arrivalSpeed="10.62" duration="135.00" routeLength="1495.00" waitingTime="0.00" waitingCount="0" stopTime="0.00" timeLoss="9.23" rerouteNo="0" devices="tripinfo_f_0_1.1 emissions_f_0_1.1" vType="DEFAULT_VEHTYPE" speedFactor="0.86" vaporized="">
        <emissions CO_abs="2965.584352" CO2_abs="298685.577605" HC_abs="20.143222" PMx_abs="3.542966" NOx_abs="109.240496" fuel_abs="95268.054853" electricity_abs="0"/>
    </tripinfo>
    <tripinfo id="f_0_1.2" depart="45.00" departLane="C4C3_0" departPos="5.10" departSpeed="0.00" departDelay="0.00" arrival="179.00" arrivalLane="C2C1_0" arrivalPos="492.80" arrivalSpeed="13.42" duration="134.00" routeLength="1495.00" waitingTime="0.00" waitingCount="0" stopTime="0.00" timeLoss="28.49" rerouteNo="0" devices="tripinfo_f_0_1.2 emissions_f_0_1.2" vType="DEFAULT_VEHTYPE" speedFactor="1.03" vaporized="">
        <emissions CO_abs="4135.111221" CO2_abs="339715.934146" HC_abs="26.620342" PMx_abs="5.110984" NOx_abs="132.171479" fuel_abs="108354.163623" electricity_abs="0"/>
    </tripinfo>
    <tripinfo id="f_0_1.3" depart="60.00" departLane="C4C3_0" departPos="5.10" departSpeed="0.00" departDelay="0.00" arrival="181.00" arrivalLane="C2C1_0" arrivalPos="492.80" arrivalSpeed="12.71" duration="121.00" routeLength="1495.00" waitingTime="0.00" waitingCount="0" stopTime="0.00" timeLoss="11.56" rerouteNo="0" devices="tripinfo_f_0_1.3 emissions_f_0_1.3" vType="DEFAULT_VEHTYPE" speedFactor="0.99" vaporized="">
        <emissions CO_abs="2469.796360" CO2_abs="297999.058541" HC_abs="17.379061" PMx_abs="3.650970" NOx_abs="108.134249" fuel_abs="95048.651067" electricity_abs="0"/>
    </tripinfo>
    <tripinfo id="f_0_0.7" depart="41.00" departLane="A2B2_0" departPos="5.10" departSpeed="0.00" departDelay="0.00" arrival="183.00" arrivalLane="C2D2_0" arrivalPos="492.80" arrivalSpeed="11.95" duration="142.00" routeLength="1495.00" waitingTime="7.00" waitingCount="2" stopTime="0.00" timeLoss="26.98" rerouteNo="0" devices="tripinfo_f_0_0.7 emissions_f_0_0.7" vType="DEFAULT_VEHTYPE" speedFactor="0.94" vaporized="">
        <emissions CO_abs="5866.521229" CO2_abs="362372.882389" HC_abs="34.731464" PMx_abs="5.704413" NOx_abs="142.067997" fuel_abs="115581.356600" electricity_abs="0"/>
    </tripinfo>
    <tripinfo id="f_0_0.8" depart="44.00" departLane="A2B2_0" departPos="5.10" departSpeed="0.00" departDelay="0.00" arrival="185.00" arrivalLane="C2D2_0" arrivalPos="492.80" arrivalSpeed="14.18" duration="141.00" routeLength="1495.00" waitingTime="5.00" waitingCount="2" stopTime="0.00" timeLoss="41.73" rerouteNo="0" devices="tripinfo_f_0_0.8 emissions_f_0_0.8" vType="DEFAULT_VEHTYPE" speedFactor="1.09" vaporized="">
        <emissions CO_abs="6456.070801" CO2_abs="396032.760414" HC_abs="38.151410" PMx_abs="6.572458" NOx_abs="157.422976" fuel_abs="126317.037169" electricity_abs="0"/>
    </tripinfo>
    <tripinfo id="f_0_1.4" depart="85.00" departLane="C4C3_0" departPos="5.10" departSpeed="0.00" departDelay="0.00" arrival="185.00" arrivalLane="C2C1_0" arrivalPos="492.80" arrivalSpeed="15.08" duration="100.00" routeLength="1495.00" waitingTime="0.00" waitingCount="0" stopTime="0.00" timeLoss="6.99" rerouteNo="0" devices="tripinfo_f_0_1.4 emissions_f_0_1.4" vType="DEFAULT_VEHTYPE" speedFactor="1.16" vaporized="">
        <emissions CO_abs="2219.320396" CO2_abs="286532.441190" HC_abs="15.741842" PMx_abs="3.975556" NOx_abs="104.229303" fuel_abs="91390.728276" electricity_abs="0"/>
    </tripinfo>
    <tripinfo id="f_0_2.2" depart="67.00" departLane="E2D2_0" departPos="5.10" departSpeed="0.00" departDelay="0.00" arrival="198.00" arrivalLane="C2B2_0" arrivalPos="492.80" arrivalSpeed="12.04" duration="131.00" routeLength="1495.00" waitingTime="0.00" waitingCount="0" stopTime="0.00" timeLoss="14.50" rerouteNo="0" devices="tripinfo_f_0_2.2 emissions_f_0_2.2" vType="DEFAULT_VEHTYPE" speedFactor="0.93" vaporized="">
        <emissions CO_abs="3548.378718" CO2_abs="322260.320714" HC_abs="23.243541" PMx_abs="4.298221" NOx_abs="120.679308" fuel_abs="102787.057683" electricity_abs="0"/>
    </tripinfo>
    <tripinfo id="f_0_3.0" depart="85.00" departLane="C0C1_0" departPos="5.10" departSpeed="0.00" departDelay="0.00" arrival="198.00" arrivalLane="C2C3_0" arrivalPos="492.80" arrivalSpeed="13.04" duration="113.00" routeLength="1495.00" waitingTime="0.00" waitingCount="0" stopTime="0.00" timeLoss="7.24" rerouteNo="0" devices="tripinfo_f_0_3.0 emissions_f_0_3.0" vType="DEFAULT_VEHTYPE" speedFactor="1.02" vaporized="">
        <emissions CO_abs="2342.582685" CO2_abs="270379.062203" HC_abs="16.269531" PMx_abs="3.666953" NOx_abs="100.028612" fuel_abs="86238.742249" electricity_abs="0"/>
    </tripinfo>
    <tripinfo id="f_0_1.5" depart="88.00" departLane="C4C3_0" departPos="5.10" departSpeed="0.00" departDelay="1.00" arrival="202.00" arrivalLane="C2C1_0" arrivalPos="492.80" arrivalSpeed="13.29" duration="114.00" routeLength="1495.00" waitingTime="0.00" waitingCount="0" stopTime="0.00" timeLoss="7.43" rerouteNo="0" devices="tripinfo_f_0_1.5 emissions_f_0_1.5" vType="DEFAULT_VEHTYPE" speedFactor="1.01" vaporized="">
        <emissions CO_abs="2171.957942" CO2_abs="282431.945130" HC_abs="15.439217" PMx_abs="3.488358" NOx_abs="101.687045" fuel_abs="90083.298329" electricity_abs="0"/>
    </tripinfo>
    <tripinfo id="f_0_2.3" depart="97.00" departLane="E2D2_0" departPos="5.10" departSpeed="0.00" departDelay="0.00" arrival="206.00" arrivalLane="C2B2_0" arrivalPos="492.80" arrivalSpeed="14.93" duration="109.00" routeLength="1495.00" waitingTime="0.00" waitingCount="0" stopTime="0.00" timeLoss="13.28" rerouteNo="0" devices="tripinfo_f_0_2.3 emissions_f_0_2.3" vType="DEFAULT_VEHTYPE" speedFactor="1.13" vaporized="">
        <emissions CO_abs="3138.549901" CO2_abs="321702.101893" HC_abs="21.114207" PMx_abs="4.748306" NOx_abs="120.416576" fuel_abs="102608.304224" electricity_abs="0"/>
    </tripinfo>
    <tripinfo id="f_0_3.1" depart="88.00" departLane="C0C1_0" departPos="5.10" departSpeed="0.00" departDelay="1.00" arrival="207.00" arrivalLane="C2C3_0" arrivalPos="492.80" arrivalSpeed="13.44" duration="119.00" routeLength="1495.00" waitingTime="0.00" waitingCount="0" stopTime="0.00" timeLoss="8.33" rerouteNo="0" devices="tripinfo_f_0_3.1 emissions_f_0_3.1" vType="DEFAULT_VEHTYPE" speedFactor="0.97" vaporized="">
        <emissions CO_abs="2557.038497" CO2_abs="295663.932316" HC_abs="17.855825" PMx_abs="3.802909" NOx_abs="108.671265" fuel_abs="94303.710222" electricity_abs="0"/>
    </tripinfo>
    <tripinfo id="f_0_0.9" depart="71.00" departLane="A2B2_0" departPos="5.10" departSpeed="0.00" departDelay="0.00" arrival="215.00" arrivalLane="C2D2_0" arrivalPos="492.80" arrivalSpeed="11.53" duration="144.00" routeLength="1495.00" waitingTime="6.00" waitingCount="1" stopTime="0.00" timeLoss="20.57" rerouteNo="0" devices="tripinfo_f_0_0.9 emissions_f_0_0.9" vType="DEFAULT_VEHTYPE" speedFactor="0.88" vaporized="">
        <emissions CO_abs="4624.669505" CO2_abs="337442.990306" HC_abs="28.532850" PMx_abs="4.510817" NOx_abs="127.056980" fuel_abs="107630.207853" electricity_abs="0"/>
    </tripinfo>
    <tripinfo id="f_0_0.10" depart="74.00" departLane="A2B2_0" departPos="5.10" departSpeed="0.00" departDelay="2.00" arrival="216.00" arrivalLane="C2D2_0" arrivalPos="492.80" arrivalSpeed="12.67" duration="142.00" routeLength="1495.00" waitingTime="6.00" waitingCount="1" stopTime="0.00" timeLoss="27.46" rerouteNo="0" devices="tripinfo_f_0_0.10 emissions_f_0_0.10" vType="DEFAULT_VEHTYPE" speedFactor="0.94" vaporized="">
        <emissions CO_abs="5105.235546" CO2_abs="359837.670250" HC_abs="31.359418" PMx_abs="5.319452" NOx_abs="139.123286" fuel_abs="114772.686837" electricity_abs="0"/>
    </tripinfo>
    <tripinfo id="f_0_0.11" depart="81.00" departLane="A2B2_0" departPos="5.10" departSpeed="0.00" departDelay="0.00" arrival="218.00" arrivalLane="C2D2_0" arrivalPos="492.80" arrivalSpeed="11.83" duration="137.00" routeLength="1495.00" waitingTime="5.00" waitingCount="1" stopTime="0.00" timeLoss="21.79" rerouteNo="0" devices="tripinfo_f_0_0.11 emissions_f_0_0.11" vType="DEFAULT_VEHTYPE" speedFactor="0.94" vaporized="">
        <emissions CO_abs="4629.020975" CO2_abs="343332.810844" HC_abs="28.653308" PMx_abs="4.876195" NOx_abs="130.536272" fuel_abs="109508.465875" electricity_abs="0"/>
    </tripinfo>
    <tripinfo id="f_0_1.6" depart="90.00" departLane="C4C3_0" departPos="5.10" departSpeed="0.00" departDelay="0.00" arrival="222.00" arrivalLane="C2C1_0" arrivalPos="492.80" arrivalSpeed="11.91" duration="132.00" routeLength="1495.00" waitingTime="0.00" waitingCount="0" stopTime="0.00" timeLoss="10.15" rerouteNo="0" devices="tripinfo_f_0_1.6 emissions_f_0_1.6" vType="DEFAULT_VEHTYPE" speedFactor="0.89" vaporized="">
        <emissions CO_abs="2802.924432" CO2_abs="292830.697805" HC_abs="19.099875" PMx_abs="3.449007" NOx_abs="106.515960" fuel_abs="93400.560735" electricity_abs="0"/>
    </tripinfo>
    <tripinfo id="f_0_1.7" depart="96.00" departLane="C4C3_0" departPos="5.10" departSpeed="0.00" departDelay="0.00" arrival="223.00" arrivalLane="C2C1_0" arrivalPos="492.80" arrivalSpeed="12.10" duration="127.00" routeLength="1495.00" waitingTime="0.00" waitingCount="0" stopTime="0.00" timeLoss="13.52" rerouteNo="0" devices="tripinfo_f_0_1.7 emissions_f_0_1.7" vType="DEFAULT_VEHTYPE" speedFactor="0.95" vaporized="">
        <emissions CO_abs="3224.377802" CO2_abs="300817.056431" HC_abs="21.301086" PMx_abs="4.290541" NOx_abs="114.353426" fuel_abs="95947.220954" electricity_abs="0"/>
    </tripinfo>
    <tripinfo id="f_0_3.2" depart="95.00" departLane="C0C1_0" departPos="5.10" departSpeed="0.00" departDelay="0.00" arrival="228.00" arrivalLane="C2C3_0" arrivalPos="492.80" arrivalSpeed="12.10" duration="133.00" routeLength="1495.00" waitingTime="0.00" waitingCount="0" stopTime="0.00" timeLoss="9.29" rerouteNo="0" devices="tripinfo_f_0_3.2 emissions_f_0_3.2" vType="DEFAULT_VEHTYPE" speedFactor="0.87" vaporized="">
        <emissions CO_abs="2902.778216" CO2_abs="304155.495529" HC_abs="19.857637" PMx_abs="3.568761" NOx_abs="110.720727" fuel_abs="97012.699897" electricity_abs="0"/>
    </tripinfo>
    <tripinfo id="f_0_0.12" depart="95.00" departLane="A2B2_0" departPos="5.10" departSpeed="0.00" departDelay="0.00" arrival="236.00" arrivalLane="C2D2_0" arrivalPos="492.80" arrivalSpeed="10.87" duration="141.00" routeLength="1495.00" waitingTime="0.00" waitingCount="0" stopTime="0.00" timeLoss="10.06" rerouteNo="0" devices="tripinfo_f_0_0.12 emissions_f_0_0.12" vType="DEFAULT_VEHTYPE" speedFactor="0.83" vaporized="">
        <emissions CO_abs="3438.786082" CO2_abs="308340.953610" HC_abs="22.609212" PMx_abs="3.811177" NOx_abs="114.451809" fuel_abs="98347.723214" electricity_abs="0"/>
    </tripinfo>
    <tripinfo id="f_0_0.13" depart="98.00" departLane="A2B2_0" departPos="5.10" departSpeed="0.00" departDelay="2.00" arrival="238.00" arrivalLane="C2D2_0" arrivalPos="492.80" arrivalSpeed="12.62" duration="140.00" routeLength="1495.00" waitingTime="0.00" waitingCount="0" stopTime="0.00" timeLoss="21.85" rerouteNo="0" devices="tripinfo_f_0_0.13 emissions_f_0_0.13" vType="DEFAULT_VEHTYPE" speedFactor="0.92" vaporized="">
        <emissions CO_abs="4608.445371" CO2_abs="351150.058912" HC_abs="29.037937" PMx_abs="5.431257" NOx_abs="138.139102" fuel_abs="112001.145015" electricity_abs="0"/>
    </tripinfo>
    <tripinfo id="f_1_2.0" depart="153.00" departLane="E2D2_0" departPos="5.10" departSpeed="0.00" departDelay="0.00" arrival="254.00" arrivalLane="C2B2_0" arrivalPos="492.80" arrivalSpeed="15.26" duration="101.00" routeLength="1495.00" waitingTime="0.00" waitingCount="0" stopTime="0.00" timeLoss="8.99" rerouteNo="0" devices="tripinfo_f_1_2.0 emissions_f_1_2.0" vType="DEFAULT_VEHTYPE" speedFactor="1.18" vaporized="">
        <emissions CO_abs="2755.089537" CO2_abs="313100.345526" HC_abs="18.737168" PMx_abs="4.575093" NOx_abs="115.508283" fuel_abs="99864.590374" electricity_abs="0"/>
    </tripinfo>
    <tripinfo id="f_1_0.0" depart="155.00" departLane="A2B2_0" departPos="5.10" departSpeed="0.00" departDelay="0.00" arrival="259.00" arrivalLane="C2D2_0" arrivalPos="492.80" arrivalSpeed="15.34" duration="104.00" routeLength="1495.00" waitingTime="0.00" waitingCount="0" stopTime="0.00" timeLoss="9.91" rerouteNo="0" devices="tripinfo_f_1_0.0 emissions_f_1_0.0" vType="DEFAULT_VEHTYPE" speedFactor="1.15" vaporized="">
        <emissions CO_abs="2829.356950" CO2_abs="312067.870857" HC_abs="19.108715" PMx_abs="4.552883" NOx_abs="115.780169" fuel_abs="99535.318064" electricity_abs="0"/>
    </tripinfo>
    <tripinfo id="f_1_3.0" depart="152.00" departLane="C0C1_0" departPos="5.10" departSpeed="0.00" departDelay="0.00" arrival="276.00" arrivalLane="C2C3_0" arrivalPos="492.80" arrivalSpeed="12.03" duration="124.00" routeLength="1495.00" waitingTime="0.00" waitingCount="0" stopTime="0.00" timeLoss="8.23" rerouteNo="0" devices="tripinfo_f_1_3.0 emissions_f_1_3.0" vType="DEFAULT_VEHTYPE" speedFactor="0.93" vaporized="">
        <emissions CO_abs="2427.506099" CO2_abs="289077.513104" HC_abs="17.144799" PMx_abs="3.450791" NOx_abs="104.828284" fuel_abs="92203.197629" electricity_abs="0"/>
    </tripinfo>
    <tripinfo id="f_1_3.1" depart="160.00" departLane="C0C1_0" departPos="5.10" departSpeed="0.00" departDelay="0.00" arrival="278.00" arrivalLane="C2C3_0" arrivalPos="492.80" arrivalSpeed="13.26" duration="118.00" routeLength="1495.00" waitingTime="0.00" waitingCount="0" stopTime="0.00" timeLoss="10.35" rerouteNo="0" devices="tripinfo_f_1_3.1 emissions_f_1_3.1" vType="DEFAULT_VEHTYPE" speedFactor="1.01" vaporized="">
        <emissions CO_abs="2840.524527" CO2_abs="300823.781397" HC_abs="19.456668" PMx_abs="4.211551" NOx_abs="112.967298" fuel_abs="95949.230935" electricity_abs="0"/>
    </tripinfo>
    <tripinfo id="f_1_3.2" depart="163.00" departLane="C0C1_0" departPos="5.10" departSpeed="0.00" departDelay="1.00" arrival="279.00" arrivalLane="C2C3_0" arrivalPos="492.80" arrivalSpeed="14.96" duration="116.00" routeLength="1495.00" waitingTime="0.00" waitingCount="0" stopTime="0.00" timeLoss="24.07" rerouteNo="0" devices="tripinfo_f_1_3.2 emissions_f_1_3.2" vType="DEFAULT_VEHTYPE" speedFactor="1.17" vaporized="">
        <emissions CO_abs="3453.520881" CO2_abs="321359.064158" HC_abs="22.743393" PMx_abs="4.978178" NOx_abs="124.226252" fuel_abs="102498.741863" electricity_abs="0"/>
    </tripinfo>
    <tripinfo id="f_1_3.3" depart="166.00" departLane="C0C1_0" departPos="5.10" departSpeed="0.00" departDelay="3.00" arrival="281.00" arrivalLane="C2C3_0" arrivalPos="492.80" arrivalSpeed="13.05" duration="115.00" routeLength="1495.00" waitingTime="0.00" waitingCount="0" stopTime="0.00" timeLoss="9.17" rerouteNo="0" devices="tripinfo_f_1_3.3 emissions_f_1_3.3" vType="DEFAULT_VEHTYPE" speedFactor="1.02" vaporized="">
        <emissions CO_abs="2540.569897" CO2_abs="290042.148400" HC_abs="17.798141" PMx_abs="3.950685" NOx_abs="107.739079" fuel_abs="92510.400851" electricity_abs="0"/>
    </tripinfo>
    <tripinfo id="f_1_3.4" depart="169.00" departLane="C0C1_0" departPos="5.10" departSpeed="0.00" departDelay="1.00" arrival="283.00" arrivalLane="C2C3_0" arrivalPos="492.80" arrivalSpeed="14.87" duration="114.00" routeLength="1495.00" waitingTime="0.00" waitingCount="0" stopTime="0.00" timeLoss="15.67" rerouteNo="0" devices="tripinfo_f_1_3.4 emissions_f_1_3.4" vType="DEFAULT_VEHTYPE" speedFactor="1.10" vaporized="">
        <emissions CO_abs="3313.301234" CO2_abs="332651.292113" HC_abs="22.475881" PMx_abs="5.082253" NOx_abs="127.758201" fuel_abs="106100.412016" electricity_abs="0"/>
    </tripinfo>
    <tripinfo id="f_1_3.5" depart="178.00" departLane="C0C1_0" departPos="5.10" departSpeed="0.00" departDelay="0.00" arrival="285.00" arrivalLane="C2C3_0" arrivalPos="492.80" arrivalSpeed="15.09" duration="107.00" routeLength="1495.00" waitingTime="0.00" waitingCount="0" stopTime="0.00" timeLoss="7.74" rerouteNo="0" devices="tripinfo_f_1_3.5 emissions_f_1_3.5" vType="DEFAULT_VEHTYPE" speedFactor="1.09" vaporized="">
        <emissions CO_abs="2313.664449" CO2_abs="288142.490558" HC_abs="16.055552" PMx_abs="3.830475" NOx_abs="105.059753" fuel_abs="91904.419289" electricity_abs="0"/>
    </tripinfo>
    <tripinfo id="f_1_1.0" depart="175.00" departLane="C4C3_0" departPos="5.10" departSpeed="0.00" departDelay="0.00" arrival="288.00" arrivalLane="C2C1_0" arrivalPos="492.80" arrivalSpeed="13.76" duration="113.00" routeLength="1495.00" waitingTime="0.00" waitingCount="0" stopTime="0.00" timeLoss="8.05" rerouteNo="0" devices="tripinfo_f_1_1.0 emissions_f_1_1.0" vType="DEFAULT_VEHTYPE" speedFactor="1.03" vaporized="">
        <emissions CO_abs="2101.956988" CO2_abs="280114.495714" HC_abs="14.832523" PMx_abs="3.334065" NOx_abs="99.159212" fuel_abs="89344.239614" electricity_abs="0"/>
    </tripinfo>
    <tripinfo id="f_1_2.1" depart="163.00" departLane="E2D2_0" departPos="5.10" departSpeed="0.00" departDelay="0.00" arrival="294.00" arrivalLane="C2B2_0" arrivalPos="492.80" arrivalSpeed="13.60" duration="131.00" routeLength="1495.00" waitingTime="9.00" waitingCount="1" stopTime="0.00" timeLoss="22.54" rerouteNo="0" devices="tripinfo_f_1_2.1 emissions_f_1_2.1" vType="DEFAULT_VEHTYPE" speedFactor="0.99" vaporized="">
        <emissions CO_abs="4774.656641" CO2_abs="335046.037793" HC_abs="28.834948" PMx_abs="4.869686" NOx_abs="127.141097" fuel_abs="106865.378660" electricity_abs="0"/>
    </tripinfo>
    <tripinfo id="f_1_1.1" depart="178.00" departLane="C4C3_0" departPos="5.10" departSpeed="0.00" departDelay="1.00" arrival="299.00" arrivalLane="C2C1_0" arrivalPos="492.80" arrivalSpeed="12.20" duration="121.00" routeLength="1495.00" waitingTime="0.00" waitingCount="0" stopTime="0.00" timeLoss="8.28" rerouteNo="0" devices="tripinfo_f_1_1.1 emissions_f_1_1.1" vType="DEFAULT_VEHTYPE" speedFactor="0.96" vaporized="">
        <emissions CO_abs="2573.862215" CO2_abs="285823.877825" HC_abs="17.760021" PMx_abs="3.733600" NOx_abs="105.520769" fuel_abs="91165.176740" electricity_abs="0"/>
    </tripinfo>
    <tripinfo id="f_1_1.2" depart="181.00" departLane="C4C3_0" departPos="5.10" departSpeed="0.00" departDelay="3.00" arrival="301.00" arrivalLane="C2C1_0" arrivalPos="492.80" arrivalSpeed="13.48" duration="120.00" routeLength="1495.00" waitingTime="0.00" waitingCount="0" stopTime="0.00" timeLoss="15.60" rerouteNo="0" devices="tripinfo_f_1_1.2 emissions_f_1_1.2" vType="DEFAULT_VEHTYPE" speedFactor="1.04" vaporized="">
        <emissions CO_abs="3424.115403" CO2_abs="324796.866719" HC_abs="22.640757" PMx_abs="4.905051" NOx_abs="124.520713" fuel_abs="103595.387169" electricity_abs="0"/>
    </tripinfo>
    <tripinfo id="f_1_2.2" depart="166.00" departLane="E2D2_0" departPos="5.10" departSpeed="0.00" departDelay="2.00" arrival="303.00" arrivalLane="C2B2_0" arrivalPos="492.80" arrivalSpeed="12.73" duration="137.00" routeLength="1495.00" waitingTime="8.00" waitingCount="2" stopTime="0.00" timeLoss="25.82" rerouteNo="0" devices="tripinfo_f_1_2.2 emissions_f_1_2.2" vType="DEFAULT_VEHTYPE" speedFactor="0.97" vaporized="">
        <emissions CO_abs="5499.512274" CO2_abs="346560.605149" HC_abs="32.540957" PMx_abs="5.246455" NOx_abs="133.763326" fuel_abs="110538.112987" electricity_abs="0"/>
    </tripinfo>
    <tripinfo id="f_1_2.3" depart="169.00" departLane="E2D2_0" departPos="5.10" departSpeed="0.00" departDelay="1.00" arrival="305.00" arrivalLane="C2B2_0" arrivalPos="492.80" arrivalSpeed="15.67" duration="136.00" routeLength="1495.00" waitingTime="8.00" waitingCount="2" stopTime="0.00" timeLoss="43.83" rerouteNo="0" devices="tripinfo_f_1_2.3 emissions_f_1_2.3" vType="DEFAULT_VEHTYPE" speedFactor="1.18" vaporized="">
        <emissions CO_abs="5917.437430" CO2_abs="375955.503266" HC_abs="35.121612" PMx_abs="6.204057" NOx_abs="148.516898" fuel_abs="119913.209978" electricity_abs="0"/>
    </tripinfo>
    <tripinfo id="f_1_2.4" depart="172.00" departLane="E2D2_0" departPos="5.10" departSpeed="0.00" departDelay="2.00" arrival="310.00" arrivalLane="C2B2_0" arrivalPos="492.80" arrivalSpeed="11.25" duration="138.00" routeLength="1495.00" waitingTime="0.00" waitingCount="0" stopTime="0.00" timeLoss="17.91" rerouteNo="0" devices="tripinfo_f_1_2.4 emissions_f_1_2.4" vType="DEFAULT_VEHTYPE" speedFactor="0.90" vaporized="">
        <emissions CO_abs="4476.139028" CO2_abs="344070.434426" HC_abs="28.160799" PMx_abs="5.087708" NOx_abs="133.145411" fuel_abs="109743.345510" electricity_abs="0"/>
    </tripinfo>
    <tripinfo id="f_1_2.5" depart="177.00" departLane="E2D2_0" departPos="5.10" departSpeed="0.00" departDelay="0.00" arrival="311.00" arrivalLane="C2B2_0" arrivalPos="492.80" arrivalSpeed="13.32" duration="134.00" routeLength="1495.00" waitingTime="0.00" waitingCount="0" stopTime="0.00" timeLoss="35.41" rerouteNo="0" devices="tripinfo_f_1_2.5 emissions_f_1_2.5" vType="DEFAULT_VEHTYPE" speedFactor="1.09" vaporized="">
        <emissions CO_abs="5223.365128" CO2_abs="378877.355744" HC_abs="32.430346" PMx_abs="6.195600" NOx_abs="150.576125" fuel_abs="120844.716681" electricity_abs="0"/>
    </tripinfo>
    <tripinfo id="f_1_2.6" depart="180.00" departLane="E2D2_0" departPos="5.10" departSpeed="0.00" departDelay="2.00" arrival="313.00" arrivalLane="C2B2_0" arrivalPos="492.80" arrivalSpeed="13.21" duration="133.00" routeLength="1495.00" waitingTime="0.00" waitingCount="0" stopTime="0.00" timeLoss="29.50" rerouteNo="0" devices="tripinfo_f_1_2.6 emissions_f_1_2.6" vType="DEFAULT_VEHTYPE" speedFactor="1.04" vaporized="">
        <emissions CO_abs="5353.106198" CO2_abs="391450.908766" HC_abs="33.183810" PMx_abs="6.488906" NOx_abs="155.904354" fuel_abs="124854.970513" electricity_abs="0"/>
    </tripinfo>
    <tripinfo id="f_1_2.7" depart="183.00" departLane="E2D2_0" departPos="5.10" departSpeed="0.00" departDelay="0.00" arrival="315.00" arrivalLane="C2B2_0" arrivalPos="492.80" arrivalSpeed="13.63" duration="132.00" routeLength="1495.00" waitingTime="0.00" waitingCount="0" stopTime="0.00" timeLoss="23.43" rerouteNo="0" devices="tripinfo_f_1_2.7 emissions_f_1_2.7" vType="DEFAULT_VEHTYPE" speedFactor="1.00" vaporized="">
        <emissions CO_abs="4794.491904" CO2_abs="383678.490774" HC_abs="30.337553" PMx_abs="6.040895" NOx_abs="150.322665" fuel_abs="122376.027071" electricity_abs="0"/>
    </tripinfo>
    <tripinfo id="f_1_2.8" depart="186.00" departLane="E2D2_0" departPos="5.10" departSpeed="0.00" departDelay="1.00" arrival="320.00" arrivalLane="C2B2_0" arrivalPos="492.80" arrivalSpeed="12.42" duration="134.00" routeLength="1495.00" waitingTime="0.00" waitingCount="0" stopTime="0.00" timeLoss="14.46" rerouteNo="0" devices="tripinfo_f_1_2.8 emissions_f_1_2.8" vType="DEFAULT_VEHTYPE" speedFactor="0.90" vaporized="">