<?xml version="1.0" encoding="UTF-8"?>

<!-- generated on 2024-08-22 12:40:09 by Eclipse SUMO sumo Version 1.17.0
<configuration xmlns:xsi="http://www.w3.org/2001/XMLSchema-instance" xsi:noNamespaceSchemaLocation="http://sumo.dlr.de/xsd/sumoConfiguration.xsd">

    <input>
        <net-file value="single_no_lights.net.xml"/>
        <route-files value="single_4.rou.xml"/>
    </input>

    <output>
        <tripinfo-output value="emissions_test\z_no_lights_4_emissions_tripinfo_single.xml"/>
    </output>

    <processing>
        <time-to-teleport value="-1"/>
    </processing>

    <emissions>
        <device.emissions.probability value="1.0"/>
    </emissions>

    <traci_server>
        <remote-port value="57268"/>
    </traci_server>

</configuration>
-->

<tripinfos xmlns:xsi="http://www.w3.org/2001/XMLSchema-instance" xsi:noNamespaceSchemaLocation="http://sumo.dlr.de/xsd/tripinfo_file.xsd">
    <tripinfo id="f_0_0.0" depart="2.00" departLane="A2B2_0" departPos="5.10" departSpeed="0.00" departDelay="0.00" arrival="114.00" arrivalLane="C2D2_0" arrivalPos="492.80" arrivalSpeed="14.16" duration="112.00" routeLength="1495.00" waitingTime="0.00" waitingCount="0" stopTime="0.00" timeLoss="9.64" rerouteNo="0" devices="tripinfo_f_0_0.0 emissions_f_0_0.0" vType="DEFAULT_VEHTYPE" speedFactor="1.06" vaporized="">
        <emissions CO_abs="2720.337709" CO2_abs="309069.931207" HC_abs="18.841089" PMx_abs="4.306135" NOx_abs="115.131418" fuel_abs="98579.279494" electricity_abs="0"/>
    </tripinfo>
    <tripinfo id="f_0_0.1" depart="5.00" departLane="A2B2_0" departPos="5.10" departSpeed="0.00" departDelay="0.00" arrival="130.00" arrivalLane="C2D2_0" arrivalPos="492.80" arrivalSpeed="12.60" duration="125.00" routeLength="1495.00" waitingTime="0.00" waitingCount="0" stopTime="0.00" timeLoss="10.22" rerouteNo="0" devices="tripinfo_f_0_0.1 emissions_f_0_0.1" vType="DEFAULT_VEHTYPE" speedFactor="0.94" vaporized="">
        <emissions CO_abs="2864.889005" CO2_abs="311997.046804" HC_abs="19.707410" PMx_abs="3.939350" NOx_abs="114.762907" fuel_abs="99513.432902" electricity_abs="0"/>
    </tripinfo>
    <tripinfo id="f_0_0.2" depart="8.00" departLane="A2B2_0" departPos="5.10" departSpeed="0.00" departDelay="1.00" arrival="132.00" arrivalLane="C2D2_0" arrivalPos="492.80" arrivalSpeed="13.48" duration="124.00" routeLength="1495.00" waitingTime="0.00" waitingCount="0" stopTime="0.00" timeLoss="16.99" rerouteNo="0" devices="tripinfo_f_0_0.2 emissions_f_0_0.2" vType="DEFAULT_VEHTYPE" speedFactor="1.01" vaporized="">
        <emissions CO_abs="3528.480375" CO2_abs="343228.836284" HC_abs="23.368368" PMx_abs="4.828024" NOx_abs="129.392602" fuel_abs="109474.673717" electricity_abs="0"/>
    </tripinfo>
    <tripinfo id="f_0_0.3" depart="11.00" departLane="A2B2_0" departPos="5.10" departSpeed="0.00" departDelay="1.00" arrival="134.00" arrivalLane="C2D2_0" arrivalPos="492.80" arrivalSpeed="14.00" duration="123.00" routeLength="1495.00" waitingTime="0.00" waitingCount="0" stopTime="0.00" timeLoss="22.84" rerouteNo="0" devices="tripinfo_f_0_0.3 emissions_f_0_0.3" vType="DEFAULT_VEHTYPE" speedFactor="1.08" vaporized="">
        <emissions CO_abs="4037.246889" CO2_abs="343724.562902" HC_abs="26.137562" PMx_abs="5.442536" NOx_abs="134.167149" fuel_abs="109632.393069" electricity_abs="0"/>
    </tripinfo>
    <tripinfo id="f_0_1.0" depart="24.00" departLane="C4C3_0" departPos="5.10" departSpeed="0.00" departDelay="0.00" arrival="135.00" arrivalLane="C2C1_0" arrivalPos="492.80" arrivalSpeed="13.69" duration="111.00" routeLength="1495.00" waitingTime="0.00" waitingCount="0" stopTime="0.00" timeLoss="7.66" rerouteNo="0" devices="tripinfo_f_0_1.0 emissions_f_0_1.0" vType="DEFAULT_VEHTYPE" speedFactor="1.05" vaporized="">
        <emissions CO_abs="2385.935963" CO2_abs="289134.526189" HC_abs="16.731899" PMx_abs="3.852463" NOx_abs="106.039933" fuel_abs="92220.902027" electricity_abs="0"/>
    </tripinfo>
    <tripinfo id="f_0_0.4" depart="16.00" departLane="A2B2_0" departPos="5.10" departSpeed="0.00" departDelay="0.00" arrival="140.00" arrivalLane="C2D2_0" arrivalPos="492.80" arrivalSpeed="13.16" duration="124.00" routeLength="1495.00" waitingTime="1.00" waitingCount="1" stopTime="0.00" timeLoss="19.20" rerouteNo="0" devices="tripinfo_f_0_0.4 emissions_f_0_0.4" vType="DEFAULT_VEHTYPE" speedFactor="1.03" vaporized="">
        <emissions CO_abs="3702.653106" CO2_abs="328236.174021" HC_abs="23.759743" PMx_abs="4.615334" NOx_abs="122.963561" fuel_abs="104692.905628" electricity_abs="0"/>
    </tripinfo>
    <tripinfo id="f_0_1.1" depart="27.00" departLane="C4C3_0" departPos="5.10" departSpeed="0.00" departDelay="1.00" arrival="150.00" arrivalLane="C2C1_0" arrivalPos="492.80" arrivalSpeed="11.90" duration="123.00" routeLength="1495.00" waitingTime="0.00" waitingCount="0" stopTime="0.00" timeLoss="8.24" rerouteNo="0" devices="tripinfo_f_0_1.1 emissions_f_0_1.1" vType="DEFAULT_VEHTYPE" speedFactor="0.94" vaporized="">
        <emissions CO_abs="2606.110624" CO2_abs="291600.212111" HC_abs="18.086330" PMx_abs="3.690506" NOx_abs="107.268067" fuel_abs="93007.676447" electricity_abs="0"/>
    </tripinfo>
    <tripinfo id="f_0_0.5" depart="20.00" departLane="A2B2_0" departPos="5.10" departSpeed="0.00" departDelay="0.00" arrival="160.00" arrivalLane="C2D2_0" arrivalPos="492.80" arrivalSpeed="11.39" duration="140.00" routeLength="1495.00" waitingTime="0.00" waitingCount="0" stopTime="0.00" timeLoss="10.31" rerouteNo="0" devices="tripinfo_f_0_0.5 emissions_f_0_0.5" vType="DEFAULT_VEHTYPE" speedFactor="0.83" vaporized="">
        <emissions CO_abs="3418.649592" CO2_abs="308972.390765" HC_abs="22.516403" PMx_abs="3.820893" NOx_abs="114.659172" fuel_abs="98549.108285" electricity_abs="0"/>
    </tripinfo>
    <tripinfo id="f_0_0.6" depart="25.00" departLane="A2B2_0" departPos="5.10" departSpeed="0.00" departDelay="0.00" arrival="162.00" arrivalLane="C2D2_0" arrivalPos="492.80" arrivalSpeed="12.03" duration="137.00" routeLength="1495.00" waitingTime="0.00" waitingCount="0" stopTime="0.00" timeLoss="15.10" rerouteNo="0" devices="tripinfo_f_0_0.6 emissions_f_0_0.6" vType="DEFAULT_VEHTYPE" speedFactor="0.89" vaporized="">
        <emissions CO_abs="3991.375165" CO2_abs="335146.528443" HC_abs="25.843589" PMx_abs="4.747162" NOx_abs="128.641409" fuel_abs="106897.000428" electricity_abs="0"/>
    </tripinfo>
    <tripinfo id="f_0_0.7" depart="29.00" departLane="A2B2_0" departPos="5.10" departSpeed="0.00" departDelay="0.00" arrival="164.00" arrivalLane="C2D2_0" arrivalPos="492.80" arrivalSpeed="14.14" duration="135.00" routeLength="1495.00" waitingTime="0.00" waitingCount="0" stopTime="0.00" timeLoss="35.51" rerouteNo="0" devices="tripinfo_f_0_0.7 emissions_f_0_0.7" vType="DEFAULT_VEHTYPE" speedFactor="1.09" vaporized="">
        <emissions CO_abs="4640.269177" CO2_abs="369714.020054" HC_abs="29.612071" PMx_abs="5.831480" NOx_abs="145.827816" fuel_abs="117921.978188" electricity_abs="0"/>
    </tripinfo>
    <tripinfo id="f_0_1.2" depart="30.00" departLane="C4C3_0" departPos="5.10" departSpeed="0.00" departDelay="3.00" arrival="166.00" arrivalLane="C2C1_0" arrivalPos="492.80" arrivalSpeed="11.58" duration="136.00" routeLength="1495.00" waitingTime="0.00" waitingCount="0" stopTime="0.00" timeLoss="9.63" rerouteNo="0" devices="tripinfo_f_0_1.2 emissions_f_0_1.2" vType="DEFAULT_VEHTYPE" speedFactor="0.86" vaporized="">
        <emissions CO_abs="3079.671531" CO2_abs="301833.789247" HC_abs="20.705418" PMx_abs="3.659885" NOx_abs="111.070829" fuel_abs="96272.137329" electricity_abs="0"/>
    </tripinfo>
    <tripinfo id="f_0_0.8" depart="32.00" departLane="A2B2_0" departPos="5.10" departSpeed="0.00" departDelay="0.00" arrival="166.00" arrivalLane="C2D2_0" arrivalPos="492.80" arrivalSpeed="14.30" duration="134.00" routeLength="1495.00" waitingTime="7.00" waitingCount="1" stopTime="0.00" timeLoss="37.61" rerouteNo="0" devices="tripinfo_f_0_0.8 emissions_f_0_0.8" vType="DEFAULT_VEHTYPE" speedFactor="1.12" vaporized="">
        <emissions CO_abs="5818.811843" CO2_abs="378072.930108" HC_abs="34.958123" PMx_abs="6.343643" NOx_abs="150.419075" fuel_abs="120588.356180" electricity_abs="0"/>
    </tripinfo>
    <tripinfo id="f_0_1.3" depart="33.00" departLane="C4C3_0" departPos="5.10" departSpeed="0.00" departDelay="4.00" arrival="167.00" arrivalLane="C2C1_0" arrivalPos="492.80" arrivalSpeed="13.74" duration="134.00" routeLength="1495.00" waitingTime="0.00" waitingCount="0" stopTime="0.00" timeLoss="29.01" rerouteNo="0" devices="tripinfo_f_0_1.3 emissions_f_0_1.3" vType="DEFAULT_VEHTYPE" speedFactor="1.03" vaporized="">
        <emissions CO_abs="4168.560690" CO2_abs="339466.074563" HC_abs="26.742102" PMx_abs="5.148126" NOx_abs="132.475646" fuel_abs="108274.435449" electricity_abs="0"/>
    </tripinfo>
    <tripinfo id="f_0_1.4" depart="36.00" departLane="C4C3_0" departPos="5.10" departSpeed="0.00" departDelay="5.00" arrival="169.00" arrivalLane="C2C1_0" arrivalPos="492.80" arrivalSpeed="14.54" duration="133.00" routeLength="1495.00" waitingTime="0.00" waitingCount="0" stopTime="0.00" timeLoss="29.76" rerouteNo="0" devices="tripinfo_f_0_1.4 emissions_f_0_1.4" vType="DEFAULT_VEHTYPE" speedFactor="1.05" vaporized="">
        <emissions CO_abs="4636.227744" CO2_abs="372078.505309" HC_abs="29.733062" PMx_abs="5.902616" NOx_abs="147.069459" fuel_abs="118676.074345" electricity_abs="0"/>
    </tripinfo>
    <tripinfo id="f_0_1.5" depart="42.00" departLane="C4C3_0" departPos="5.10" departSpeed="0.00" departDelay="0.00" arrival="171.00" arrivalLane="C2C1_0" arrivalPos="492.80" arrivalSpeed="13.66" duration="129.00" routeLength="1495.00" waitingTime="0.00" waitingCount="0" stopTime="0.00" timeLoss="22.66" rerouteNo="0" devices="tripinfo_f_0_1.5 emissions_f_0_1.5" vType="DEFAULT_VEHTYPE" speedFactor="1.02" vaporized="">
        <emissions CO_abs="4087.875486" CO2_abs="346718.208926" HC_abs="26.380041" PMx_abs="5.303875" NOx_abs="135.139032" fuel_abs="110587.379298" electricity_abs="0"/>
    </tripinfo>
    <tripinfo id="f_0_2.0" depart="40.00" departLane="E2D2_0" departPos="5.10" departSpeed="0.00" departDelay="0.00" arrival="172.00" arrivalLane="C2B2_0" arrivalPos="492.80" arrivalSpeed="11.92" duration="132.00" routeLength="1495.00" waitingTime="2.00" waitingCount="1" stopTime="0.00" timeLoss="16.82" rerouteNo="0" devices="tripinfo_f_0_2.0 emissions_f_0_2.0" vType="DEFAULT_VEHTYPE" speedFactor="0.94" vaporized="">
        <emissions CO_abs="3950.400206" CO2_abs="322758.084957" HC_abs="24.960655" PMx_abs="4.436971" NOx_abs="121.550987" fuel_abs="102945.921610" electricity_abs="0"/>
    </tripinfo>
    <tripinfo id="f_0_1.6" depart="45.00" departLane="C4C3_0" departPos="5.10" departSpeed="0.00" departDelay="0.00" arrival="178.00" arrivalLane="C2C1_0" arrivalPos="492.80" arrivalSpeed="11.49" duration="133.00" routeLength="1495.00" waitingTime="0.00" waitingCount="0" stopTime="0.00" timeLoss="9.34" rerouteNo="0" devices="tripinfo_f_0_1.6 emissions_f_0_1.6" vType="DEFAULT_VEHTYPE" speedFactor="0.87" vaporized="">
        <emissions CO_abs="2905.613916" CO2_abs="299834.102877" HC_abs="19.833779" PMx_abs="3.576053" NOx_abs="109.688518" fuel_abs="95634.308472" electricity_abs="0"/>
    </tripinfo>
    <tripinfo id="f_0_1.7" depart="51.00" departLane="C4C3_0" departPos="5.10" departSpeed="0.00" departDelay="0.00" arrival="180.00" arrivalLane="C2C1_0" arrivalPos="492.80" arrivalSpeed="12.91" duration="129.00" routeLength="1495.00" waitingTime="0.00" waitingCount="0" stopTime="0.00" timeLoss="12.76" rerouteNo="0" devices="tripinfo_f_0_1.7 emissions_f_0_1.7" vType="DEFAULT_VEHTYPE" speedFactor="0.93" vaporized="">
        <emissions CO_abs="3130.781579" CO2_abs="319276.038818" HC_abs="21.184412" PMx_abs="4.123623" NOx_abs="118.527594" fuel_abs="101835.120908" electricity_abs="0"/>
    </tripinfo>
    <tripinfo id="f_0_1.8" depart="56.00" departLane="C4C3_0" departPos="5.10" departSpeed="0.00" departDelay="0.00" arrival="181.00" arrivalLane="C2C1_0" arrivalPos="492.80" arrivalSpeed="15.77" duration="125.00" routeLength="1495.00" waitingTime="0.00" waitingCount="0" stopTime="0.00" timeLoss="33.56" rerouteNo="0" devices="tripinfo_f_0_1.8 emissions_f_0_1.8" vType="DEFAULT_VEHTYPE" speedFactor="1.18" vaporized="">
        <emissions CO_abs="4477.387151" CO2_abs="375793.006746" HC_abs="28.895425" PMx_abs="6.047563" NOx_abs="148.046750" fuel_abs="119860.654455" electricity_abs="0"/>
    </tripinfo>
    <tripinfo id="f_0_1.9" depart="59.00" departLane="C4C3_0" departPos="5.10" departSpeed="0.00" departDelay="1.00" arrival="183.00" arrivalLane="C2C1_0" arrivalPos="492.80" arrivalSpeed="14.83" duration="124.00" routeLength="1495.00" waitingTime="0.00" waitingCount="0" stopTime="0.00" timeLoss="30.32" rerouteNo="0" devices="tripinfo_f_0_1.9 emissions_f_0_1.9" vType="DEFAULT_VEHTYPE" speedFactor="1.15" vaporized="">
        <emissions CO_abs="4507.929768" CO2_abs="369717.173230" HC_abs="28.845491" PMx_abs="6.072994" NOx_abs="146.393201" fuel_abs="117922.651081" electricity_abs="0"/>
    </tripinfo>
    <tripinfo id="f_0_1.10" depart="62.00" departLane="C4C3_0" departPos="5.10" departSpeed="0.00" departDelay="2.00" arrival="185.00" arrivalLane="C2C1_0" arrivalPos="492.80" arrivalSpeed="15.95" duration="123.00" routeLength="1495.00" waitingTime="0.00" waitingCount="0" stopTime="0.00" timeLoss="30.31" rerouteNo="0" devices="tripinfo_f_0_1.10 emissions_f_0_1.10" vType="DEFAULT_VEHTYPE" speedFactor="1.17" vaporized="">
        <emissions CO_abs="4893.254020" CO2_abs="399561.430787" HC_abs="31.352771" PMx_abs="6.731239" NOx_abs="159.450569" fuel_abs="127441.387691" electricity_abs="0"/>
    </tripinfo>
    <tripinfo id="f_0_1.11" depart="69.00" departLane="C4C3_0" departPos="5.10" departSpeed="0.00" departDelay="0.00" arrival="186.00" arrivalLane="C2C1_0" arrivalPos="492.80" arrivalSpeed="15.13" duration="117.00" routeLength="1495.00" waitingTime="2.00" waitingCount="1" stopTime="0.00" timeLoss="25.59" rerouteNo="0" devices="tripinfo_f_0_1.11 emissions_f_0_1.11" vType="DEFAULT_VEHTYPE" speedFactor="1.18" vaporized="">
        <emissions CO_abs="5522.343093" CO2_abs="399737.753122" HC_abs="34.259151" PMx_abs="7.082575" NOx_abs="160.720110" fuel_abs="127497.700887" electricity_abs="0"/>
    </tripinfo>
    <tripinfo id="f_0_3.0" depart="80.00" departLane="C0C1_0" departPos="5.10" departSpeed="0.00" departDelay="0.00" arrival="186.00" arrivalLane="C2C3_0" arrivalPos="492.80" arrivalSpeed="15.10" duration="106.00" routeLength="1495.00" waitingTime="0.00" waitingCount="0" stopTime="0.00" timeLoss="6.95" rerouteNo="0" devices="tripinfo_f_0_3.0 emissions_f_0_3.0" vType="DEFAULT_VEHTYPE" speedFactor="1.09" vaporized="">
        <emissions CO_abs="2415.304211" CO2_abs="287030.128897" HC_abs="16.847394" PMx_abs="4.026036" NOx_abs="105.899751" fuel_abs="91549.507482" electricity_abs="0"/>
    </tripinfo>
    <tripinfo id="f_0_2.1" depart="43.00" departLane="E2D2_0" departPos="5.10" departSpeed="0.00" departDelay="1.00" arrival="187.00" arrivalLane="C2B2_0" arrivalPos="492.80" arrivalSpeed="13.61" duration="144.00" routeLength="1495.00" waitingTime="14.00" waitingCount="2" stopTime="0.00" timeLoss="36.84" rerouteNo="0" devices="tripinfo_f_0_2.1 emissions_f_0_2.1" vType="DEFAULT_VEHTYPE" speedFactor="1.01" vaporized="">
        <emissions CO_abs="6588.523004" CO2_abs="377491.416449" HC_abs="37.930829" PMx_abs="5.846617" NOx_abs="145.898869" fuel_abs="120403.957525" electricity_abs="0"/>
    </tripinfo>
    <tripinfo id="f_0_0.9" depart="35.00" departLane="A2B2_0" departPos="5.10" departSpeed="0.00" departDelay="2.00" arrival="188.00" arrivalLane="C2D2_0" arrivalPos="492.80" arrivalSpeed="12.73" duration="153.00" routeLength="1495.00" waitingTime="19.00" waitingCount="2" stopTime="0.00" timeLoss="43.90" rerouteNo="0" devices="tripinfo_f_0_0.9 emissions_f_0_0.9" vType="DEFAULT_VEHTYPE" speedFactor="0.99" vaporized="">
        <emissions CO_abs="7837.422229" CO2_abs="406184.622784" HC_abs="44.643076" PMx_abs="6.735680" NOx_abs="161.540115" fuel_abs="129555.799521" electricity_abs="0"/>
    </tripinfo>
    <tripinfo id="f_0_1.12" depart="73.00" departLane="C4C3_0" departPos="5.10" departSpeed="0.00" departDelay="0.00" arrival="188.00" arrivalLane="C2C1_0" arrivalPos="492.80" arrivalSpeed="13.90" duration="115.00" routeLength="1495.00" waitingTime="0.00" waitingCount="0" stopTime="0.00" timeLoss="10.48" rerouteNo="0" devices="tripinfo_f_0_1.12 emissions_f_0_1.12" vType="DEFAULT_VEHTYPE" speedFactor="1.03" vaporized="">
        <emissions CO_abs="2840.204840" CO2_abs="312479.697827" HC_abs="19.462454" PMx_abs="4.298882" NOx_abs="115.939640" fuel_abs="99666.966113" electricity_abs="0"/>
    </tripinfo>
    <tripinfo id="f_0_1.13" depart="77.00" departLane="C4C3_0" departPos="5.10" departSpeed="0.00" departDelay="0.00" arrival="190.00" arrivalLane="C2C1_0" arrivalPos="492.80" arrivalSpeed="13.97" duration="113.00" routeLength="1495.00" waitingTime="0.00" waitingCount="0" stopTime="0.00" timeLoss="14.00" rerouteNo="0" devices="tripinfo_f_0_1.13 emissions_f_0_1.13" vType="DEFAULT_VEHTYPE" speedFactor="1.09" vaporized="">
        <emissions CO_abs="3139.528377" CO2_abs="325758.511084" HC_abs="21.365382" PMx_abs="4.827497" NOx_abs="123.516027" fuel_abs="103902.032075" electricity_abs="0"/>
    </tripinfo>
    <tripinfo id="f_0_1.14" depart="80.00" departLane="C4C3_0" departPos="5.10" departSpeed="0.00" departDelay="0.00" arrival="192.00" arrivalLane="C2C1_0" arrivalPos="492.80" arrivalSpeed="14.20" duration="112.00" routeLength="1495.00" waitingTime="0.00" waitingCount="0" stopTime="0.00" timeLoss="8.27" rerouteNo="0" devices="tripinfo_f_0_1.14 emissions_f_0_1.14" vType="DEFAULT_VEHTYPE" speedFactor="1.04" vaporized="">
        <emissions CO_abs="2309.871915" CO2_abs="297341.933456" HC_abs="16.385214" PMx_abs="3.746327" NOx_abs="107.413141" fuel_abs="94838.847438" electricity_abs="0"/>
    </tripinfo>
    <tripinfo id="f_0_0.10" depart="38.00" departLane="A2B2_0" departPos="5.10" departSpeed="0.00" departDelay="4.00" arrival="200.00" arrivalLane="C2D2_0" arrivalPos="492.80" arrivalSpeed="12.03" duration="162.00" routeLength="1495.00" waitingTime="21.00" waitingCount="3" stopTime="0.00" timeLoss="45.05" rerouteNo="0" devices="tripinfo_f_0_0.10 emissions_f_0_0.10" vType="DEFAULT_VEHTYPE" speedFactor="0.93" vaporized="">
        <emissions CO_abs="8006.990992" CO2_abs="396724.259992" HC_abs="45.078453" PMx_abs="6.193666" NOx_abs="154.929894" fuel_abs="126539.047016" electricity_abs="0"/>
    </tripinfo>
    <tripinfo id="f_0_2.2" depart="46.00" departLane="E2D2_0" departPos="5.10" departSpeed="0.00" departDelay="2.00" arrival="201.00" arrivalLane="C2B2_0" arrivalPos="492.80" arrivalSpeed="11.25" duration="155.00" routeLength="1495.00" waitingTime="17.00" waitingCount="2" stopTime="0.00" timeLoss="33.72" rerouteNo="0" devices="tripinfo_f_0_2.2 emissions_f_0_2.2" vType="DEFAULT_VEHTYPE" speedFactor="0.89" vaporized="">
        <emissions CO_abs="6554.295450" CO2_abs="358089.050872" HC_abs="37.877481" PMx_abs="5.288489" NOx_abs="138.292057" fuel_abs="114215.904388" electricity_abs="0"/>
    </tripinfo>
    <tripinfo id="f_0_2.3" depart="49.00" departLane="E2D2_0" departPos="5.10" departSpeed="0.00" departDelay="4.00" arrival="203.00" arrivalLane="C2B2_0" arrivalPos="492.80" arrivalSpeed="11.46" duration="154.00" routeLength="1495.00" waitingTime="14.00" waitingCount="2" stopTime="0.00" timeLoss="36.17" rerouteNo="0" devices="tripinfo_f_0_2.3 emissions_f_0_2.3" vType="DEFAULT_VEHTYPE" speedFactor="0.92" vaporized="">
        <emissions CO_abs="6791.858581" CO2_abs="376678.591051" HC_abs="39.352301" PMx_abs="5.831282" NOx_abs="147.300468" fuel_abs="120144.817833" electricity_abs="0"/>
    </tripinfo>
    <tripinfo id="f_0_0.11" depart="41.00" departLane="A2B2_0" departPos="5.10" departSpeed="0.00" departDelay="2.00" arrival="204.00" arrivalLane="C2D2_0" arrivalPos="492.80" arrivalSpeed="11.74" duration="163.00" routeLength="1495.00" waitingTime="14.00" waitingCount="3" stopTime="0.00" timeLoss="40.11" rerouteNo="0" devices="tripinfo_f_0_0.11 emissions_f_0_0.11" vType="DEFAULT_VEHTYPE" speedFactor="0.88" vaporized="">
        <emissions CO_abs="7391.209661" CO2_abs="395510.105517" HC_abs="42.429483" PMx_abs="5.777388" NOx_abs="152.350491" fuel_abs="126151.883399" electricity_abs="0"/>
    </tripinfo>
    <tripinfo id="f_0_2.4" depart="52.00" departLane="E2D2_0" departPos="5.10" departSpeed="0.00" departDelay="2.00" arrival="205.00" arrivalLane="C2B2_0" arrivalPos="492.80" arrivalSpeed="15.54" duration="153.00" routeLength="1495.00" waitingTime="13.00" waitingCount="2" stopTime="0.00" timeLoss="57.03" rerouteNo="0" devices="tripinfo_f_0_2.4 emissions_f_0_2.4" vType="DEFAULT_VEHTYPE" speedFactor="1.13" vaporized="">
        <emissions CO_abs="8157.750216" CO2_abs="440310.962347" HC_abs="47.228147" PMx_abs="7.617649" NOx_abs="177.987432" fuel_abs="140440.080548" electricity_abs="0"/>
    </tripinfo>
    <tripinfo id="f_0_0.12" depart="44.00" departLane="A2B2_0" departPos="5.10" departSpeed="0.00" departDelay="4.00" arrival="206.00" arrivalLane="C2D2_0" arrivalPos="492.80" arrivalSpeed="12.48" duration="162.00" routeLength="1495.00" waitingTime="11.00" waitingCount="2" stopTime="0.00" timeLoss="47.10" rerouteNo="0" devices="tripinfo_f_0_0.12 emissions_f_0_0.12" vType="DEFAULT_VEHTYPE" speedFactor="0.94" vaporized="">
        <emissions CO_abs="7829.029384" CO2_abs="409539.971875" HC_abs="45.058965" PMx_abs="6.788136" NOx_abs="163.921451" fuel_abs="130625.963526" electricity_abs="0"/>
    </tripinfo>
    <tripinfo id="f_0_2.5" depart="65.00" departLane="E2D2_0" departPos="5.10" departSpeed="0.00" departDelay="0.00" arrival="206.00" arrivalLane="C2B2_0" arrivalPos="492.80" arrivalSpeed="13.39" duration="141.00" routeLength="1495.00" waitingTime="12.00" waitingCount="2" stopTime="0.00" timeLoss="35.39" rerouteNo="0" devices="tripinfo_f_0_2.5 emissions_f_0_2.5" vType="DEFAULT_VEHTYPE" speedFactor="1.02" vaporized="">
        <emissions CO_abs="6556.097034" CO2_abs="385795.298595" HC_abs="38.141320" PMx_abs="6.239003" NOx_abs="151.183826" fuel_abs="123052.121308" electricity_abs="0"/>
    </tripinfo>
    <tripinfo id="f_0_0.13" depart="47.00" departLane="A2B2_0" departPos="5.10" departSpeed="0.00" departDelay="6.00" arrival="208.00" arrivalLane="C2D2_0" arrivalPos="492.80" arrivalSpeed="15.35" duration="161.00" routeLength="1495.00" waitingTime="9.00" waitingCount="1" stopTime="0.00" timeLoss="67.17" rerouteNo="0" devices="tripinfo_f_0_0.13 emissions_f_0_0.13" vType="DEFAULT_VEHTYPE" speedFactor="1.16" vaporized="">
        <emissions CO_abs="8507.441936" CO2_abs="436710.869911" HC_abs="48.860781" PMx_abs="7.666890" NOx_abs="177.889878" fuel_abs="139291.917136" electricity_abs="0"/>
    </tripinfo>
    <tripinfo id="f_0_1.15" depart="83.00" departLane="C4C3_0" departPos="5.10" departSpeed="0.00" departDelay="2.00" arrival="212.00" arrivalLane="C2C1_0" arrivalPos="492.80" arrivalSpeed="11.73" duration="129.00" routeLength="1495.00" waitingTime="0.00" waitingCount="0" stopTime="0.00" timeLoss="8.92" rerouteNo="0" devices="tripinfo_f_0_1.15 emissions_f_0_1.15" vType="DEFAULT_VEHTYPE" speedFactor="0.90" vaporized="">
        <emissions CO_abs="2891.119845" CO2_abs="291785.490453" HC_abs="19.638124" PMx_abs="3.760045" NOx_abs="108.499504" fuel_abs="93066.859186" electricity_abs="0"/>
    </tripinfo>
    <tripinfo id="f_0_3.1" depart="83.00" departLane="C0C1_0" departPos="5.10" departSpeed="0.00" departDelay="2.00" arrival="220.00" arrivalLane="C2C3_0" arrivalPos="492.80" arrivalSpeed="11.21" duration="137.00" routeLength="1495.00" waitingTime="0.00" waitingCount="0" stopTime="0.00" timeLoss="10.13" rerouteNo="0" devices="tripinfo_f_0_3.1 emissions_f_0_3.1" vType="DEFAULT_VEHTYPE" speedFactor="0.85" vaporized="">
        <emissions CO_abs="3176.886935" CO2_abs="302840.981614" HC_abs="21.194678" PMx_abs="3.679213" NOx_abs="111.567698" fuel_abs="96593.439619" electricity_abs="0"/>
    </tripinfo>
    <tripinfo id="f_0_3.2" depart="86.00" departLane="C0C1_0" departPos="5.10" departSpeed="0.00" departDelay="1.00" arrival="222.00" arrivalLane="C2C3_0" arrivalPos="492.80" arrivalSpeed="12.69" duration="136.00" routeLength="1495.00" waitingTime="0.00" waitingCount="0" stopTime="0.00" timeLoss="28.03" rerouteNo="0" devices="tripinfo_f_0_3.2 emissions_f_0_3.2" vType="DEFAULT_VEHTYPE" speedFactor="1.00" vaporized="">
        <emissions CO_abs="4099.143187" CO2_abs="343800.364013" HC_abs="26.532603" PMx_abs="4.967676" NOx_abs="132.490080" fuel_abs="109657.098343" electricity_abs="0"/>
    </tripinfo>
    <tripinfo id="f_0_1.16" depart="86.00" departLane="C4C3_0" departPos="5.10" departSpeed="0.00" departDelay="3.00" arrival="223.00" arrivalLane="C2C1_0" arrivalPos="492.80" arrivalSpeed="11.05" duration="137.00" routeLength="1495.00" waitingTime="0.00" waitingCount="0" stopTime="0.00" timeLoss="10.30" rerouteNo="0" devices="tripinfo_f_0_1.16 emissions_f_0_1.16" vType="DEFAULT_VEHTYPE" speedFactor="0.85" vaporized="">
        <emissions CO_abs="3106.321345" CO2_abs="303562.012192" HC_abs="20.915075" PMx_abs="3.577923" NOx_abs="111.161354" fuel_abs="96823.475892" electricity_abs="0"/>
    </tripinfo>
    <tripinfo id="f_0_3.3" depart="89.00" departLane="C0C1_0" departPos="5.10" departSpeed="0.00" departDelay="3.00" arrival="223.00" arrivalLane="C2C3_0" arrivalPos="492.80" arrivalSpeed="13.41" duration="134.00" routeLength="1495.00" waitingTime="0.00" waitingCount="0" stopTime="0.00" timeLoss="25.85" rerouteNo="0" devices="tripinfo_f_0_3.3 emissions_f_0_3.3" vType="DEFAULT_VEHTYPE" speedFactor="1.00" vaporized="">
        <emissions CO_abs="4148.627435" CO2_abs="333114.158035" HC_abs="26.507022" PMx_abs="5.123191" NOx_abs="130.434420" fuel_abs="106248.416534" electricity_abs="0"/>
    </tripinfo>
    <tripinfo id="f_0_1.17" depart="89.00" departLane="C4C3_0" departPos="5.10" departSpeed="0.00" departDelay="4.00" arrival="224.00" arrivalLane="C2C1_0" arrivalPos="492.80" arrivalSpeed="13.51" duration="135.00" routeLength="1495.00" waitingTime="0.00" waitingCount="0" stopTime="0.00" timeLoss="36.57" rerouteNo="0" devices="tripinfo_f_0_1.17 emissions_f_0_1.17" vType="DEFAULT_VEHTYPE" speedFactor="1.10" vaporized="">
        <emissions CO_abs="4353.999747" CO2_abs="348087.442906" HC_abs="27.844650" PMx_abs="5.372374" NOx_abs="136.626776" fuel_abs="111024.203519" electricity_abs="0"/>
    </tripinfo>
    <tripinfo id="f_0_3.4" depart="92.00" departLane="C0C1_0" departPos="5.10" departSpeed="0.00" departDelay="5.00" arrival="225.00" arrivalLane="C2C3_0" arrivalPos="492.80" arrivalSpeed="14.92" duration="133.00" routeLength="1495.00" waitingTime="0.00" waitingCount="0" stopTime="0.00" timeLoss="38.25" rerouteNo="0" devices="tripinfo_f_0_3.4 emissions_f_0_3.4" vType="DEFAULT_VEHTYPE" speedFactor="1.14" vaporized="">
        <emissions CO_abs="5004.202722" CO2_abs="378865.866912" HC_abs="31.602642" PMx_abs="6.361664" NOx_abs="152.190777" fuel_abs="120840.698976" electricity_abs="0"/>
    </tripinfo>
    <tripinfo id="f_0_1.18" depart="92.00" departLane="C4C3_0" departPos="5.10" departSpeed="0.00" departDelay="5.00" arrival="226.00" arrivalLane="C2C1_0" arrivalPos="492.80" arrivalSpeed="12.07" duration="134.00" routeLength="1495.00" waitingTime="0.00" waitingCount="0" stopTime="0.00" timeLoss="13.95" rerouteNo="0" devices="tripinfo_f_0_1.18 emissions_f_0_1.18" vType="DEFAULT_VEHTYPE" speedFactor="0.90" vaporized="">
        <emissions CO_abs="4296.260430" CO2_abs="353735.314007" HC_abs="27.486748" PMx_abs="5.355686" NOx_abs="137.668833" fuel_abs="112825.683761" electricity_abs="0"/>
    </tripinfo>
    <tripinfo id="f_0_3.5" depart="95.00" departLane="C0C1_0" departPos="5.10" departSpeed="0.00" departDelay="6.00" arrival="227.00" arrivalLane="C2C3_0" arrivalPos="492.80" arrivalSpeed="13.32" duration="132.00" routeLength="1495.00" waitingTime="0.00" waitingCount="0" stopTime="0.00" timeLoss="20.48" rerouteNo="0" devices="tripinfo_f_0_3.5 emissions_f_0_3.5" vType="DEFAULT_VEHTYPE" speedFactor="0.97" vaporized="">
        <emissions CO_abs="4963.393746" CO2_abs="386654.977557" HC_abs="31.434235" PMx_abs="6.344894" NOx_abs="153.987946" fuel_abs="123325.153415" electricity_abs="0"/>
    </tripinfo>
    <tripinfo id="f_0_1.19" depart="95.00" departLane="C4C3_0" departPos="5.10" departSpeed="0.00" departDelay="5.00" arrival="228.00" arrivalLane="C2C1_0" arrivalPos="492.80" arrivalSpeed="14.89" duration="133.00" routeLength="1495.00" waitingTime="0.00" waitingCount="0" stopTime="0.00" timeLoss="32.89" rerouteNo="0" devices="tripinfo_f_0_1.19 emissions_f_0_1.19" vType="DEFAULT_VEHTYPE" speedFactor="1.08" vaporized="">
        <emissions CO_abs="5040.585104" CO2_abs="388814.464404" HC_abs="32.019960" PMx_abs="6.438060" NOx_abs="155.554320" fuel_abs="124013.896832" electricity_abs="0"/>
    </tripinfo>
    <tripinfo id="f_0_3.6" depart="98.00" departLane="C0C1_0" departPos="5.10" departSpeed="0.00" departDelay="8.00" arrival="229.00" arrivalLane="C2C3_0" arrivalPos="492.80" arrivalSpeed="14.61" duration="131.00" routeLength="1495.00" waitingTime="0.00" waitingCount="0" stopTime="0.00" timeLoss="34.05" rerouteNo="0" devices="tripinfo_f_0_3.6 emissions_f_0_3.6" vType="DEFAULT_VEHTYPE" speedFactor="1.12" vaporized="">
        <emissions CO_abs="5734.061344" CO2_abs="426088.463535" HC_abs="35.906493" PMx_abs="7.395848" NOx_abs="172.550063" fuel_abs="135902.304016" electricity_abs="0"/>
    </tripinfo>
    <tripinfo id="f_0_3.7" depart="101.00" departLane="C0C1_0" departPos="5.10" departSpeed="0.00" departDelay="10.00" arrival="230.00" arrivalLane="C2C3_0" arrivalPos="492.80" arrivalSpeed="13.13" duration="129.00" routeLength="1495.00" waitingTime="0.00" waitingCount="0" stopTime="0.00" timeLoss="22.93" rerouteNo="0" devices="tripinfo_f_0_3.7 emissions_f_0_3.7" vType="DEFAULT_VEHTYPE" speedFactor="1.02" vaporized="">