<?xml version="1.0" encoding="UTF-8"?>

<!-- generated on 2024-08-22 12:40:12 by Eclipse SUMO sumo Version 1.17.0
<configuration xmlns:xsi="http://www.w3.org/2001/XMLSchema-instance" xsi:noNamespaceSchemaLocation="http://sumo.dlr.de/xsd/sumoConfiguration.xsd">

    <input>
        <net-file value="single_no_lights.net.xml"/>
        <route-files value="single_5.rou.xml"/>
    </input>

    <output>
        <tripinfo-output value="emissions_test\z_no_lights_5_emissions_tripinfo_single.xml"/>
    </output>

    <processing>
        <time-to-teleport value="-1"/>
    </processing>

    <emissions>
        <device.emissions.probability value="1.0"/>
    </emissions>

    <traci_server>
        <remote-port value="57270"/>
    </traci_server>

</configuration>
-->

<tripinfos xmlns:xsi="http://www.w3.org/2001/XMLSchema-instance" xsi:noNamespaceSchemaLocation="http://sumo.dlr.de/xsd/tripinfo_file.xsd">
    <tripinfo id="f_0_0.0" depart="2.00" departLane="A2B2_0" departPos="5.10" departSpeed="0.00" departDelay="0.00" arrival="114.00" arrivalLane="C2D2_0" arrivalPos="492.80" arrivalSpeed="13.60" duration="112.00" routeLength="1495.00" waitingTime="0.00" waitingCount="0" stopTime="0.00" timeLoss="9.68" rerouteNo="0" devices="tripinfo_f_0_0.0 emissions_f_0_0.0" vType="DEFAULT_VEHTYPE" speedFactor="1.06" vaporized="">
        <emissions CO_abs="2697.659126" CO2_abs="303953.228273" HC_abs="18.502567" PMx_abs="4.206400" NOx_abs="112.725344" fuel_abs="96947.323777" electricity_abs="0"/>
    </tripinfo>
    <tripinfo id="f_0_0.1" depart="5.00" departLane="A2B2_0" departPos="5.10" departSpeed="0.00" departDelay="0.00" arrival="130.00" arrivalLane="C2D2_0" arrivalPos="492.80" arrivalSpeed="12.66" duration="125.00" routeLength="1495.00" waitingTime="0.00" waitingCount="0" stopTime="0.00" timeLoss="9.64" rerouteNo="0" devices="tripinfo_f_0_0.1 emissions_f_0_0.1" vType="DEFAULT_VEHTYPE" speedFactor="0.94" vaporized="">
        <emissions CO_abs="2955.194732" CO2_abs="306669.919289" HC_abs="20.015760" PMx_abs="4.050242" NOx_abs="113.919462" fuel_abs="97814.201913" electricity_abs="0"/>
    </tripinfo>
    <tripinfo id="f_0_0.2" depart="10.00" departLane="A2B2_0" departPos="5.10" departSpeed="0.00" departDelay="0.00" arrival="132.00" arrivalLane="C2D2_0" arrivalPos="492.80" arrivalSpeed="13.35" duration="122.00" routeLength="1495.00" waitingTime="0.00" waitingCount="0" stopTime="0.00" timeLoss="14.54" rerouteNo="0" devices="tripinfo_f_0_0.2 emissions_f_0_0.2" vType="DEFAULT_VEHTYPE" speedFactor="1.01" vaporized="">
        <emissions CO_abs="3446.580681" CO2_abs="332641.379673" HC_abs="22.922524" PMx_abs="4.869376" NOx_abs="127.141240" fuel_abs="106097.517840" electricity_abs="0"/>
    </tripinfo>
    <tripinfo id="f_0_0.3" depart="16.00" departLane="A2B2_0" departPos="5.10" departSpeed="0.00" departDelay="0.00" arrival="133.00" arrivalLane="C2D2_0" arrivalPos="492.80" arrivalSpeed="14.06" duration="117.00" routeLength="1495.00" waitingTime="0.00" waitingCount="0" stopTime="0.00" timeLoss="17.36" rerouteNo="0" devices="tripinfo_f_0_0.3 emissions_f_0_0.3" vType="DEFAULT_VEHTYPE" speedFactor="1.08" vaporized="">
        <emissions CO_abs="3735.276388" CO2_abs="341410.063320" HC_abs="24.343291" PMx_abs="5.245823" NOx_abs="131.579204" fuel_abs="108894.161657" electricity_abs="0"/>
    </tripinfo>
    <tripinfo id="f_0_0.4" depart="20.00" departLane="A2B2_0" departPos="5.10" departSpeed="0.00" departDelay="0.00" arrival="136.00" arrivalLane="C2D2_0" arrivalPos="492.80" arrivalSpeed="13.64" duration="116.00" routeLength="1495.00" waitingTime="0.00" waitingCount="0" stopTime="0.00" timeLoss="11.02" rerouteNo="0" devices="tripinfo_f_0_0.4 emissions_f_0_0.4" vType="DEFAULT_VEHTYPE" speedFactor="1.03" vaporized="">
        <emissions CO_abs="2957.281394" CO2_abs="316409.187908" HC_abs="19.920096" PMx_abs="4.335559" NOx_abs="117.294725" fuel_abs="100920.352448" electricity_abs="0"/>
    </tripinfo>
    <tripinfo id="f_0_1.0" depart="40.00" departLane="C4C3_0" departPos="5.10" departSpeed="0.00" departDelay="0.00" arrival="180.00" arrivalLane="C2C1_0" arrivalPos="492.80" arrivalSpeed="11.51" duration="140.00" routeLength="1495.00" waitingTime="0.00" waitingCount="0" stopTime="0.00" timeLoss="9.59" rerouteNo="0" devices="tripinfo_f_0_1.0 emissions_f_0_1.0" vType="DEFAULT_VEHTYPE" speedFactor="0.83" vaporized="">
        <emissions CO_abs="3293.904747" CO2_abs="307656.818823" HC_abs="21.937629" PMx_abs="3.685518" NOx_abs="113.297701" fuel_abs="98129.570602" electricity_abs="0"/>
    </tripinfo>
    <tripinfo id="f_0_1.1" depart="43.00" departLane="C4C3_0" departPos="5.10" departSpeed="0.00" departDelay="0.00" arrival="181.00" arrivalLane="C2C1_0" arrivalPos="492.80" arrivalSpeed="11.71" duration="138.00" routeLength="1495.00" waitingTime="0.00" waitingCount="0" stopTime="0.00" timeLoss="35.03" rerouteNo="0" devices="tripinfo_f_0_1.1 emissions_f_0_1.1" vType="DEFAULT_VEHTYPE" speedFactor="1.05" vaporized="">
        <emissions CO_abs="3976.787656" CO2_abs="331066.203331" HC_abs="25.620549" PMx_abs="4.682414" NOx_abs="126.918651" fuel_abs="105595.601539" electricity_abs="0"/>
    </tripinfo>
    <tripinfo id="f_0_1.2" depart="46.00" departLane="C4C3_0" departPos="5.10" departSpeed="0.00" departDelay="1.00" arrival="183.00" arrivalLane="C2C1_0" arrivalPos="492.80" arrivalSpeed="12.09" duration="137.00" routeLength="1495.00" waitingTime="0.00" waitingCount="0" stopTime="0.00" timeLoss="15.30" rerouteNo="0" devices="tripinfo_f_0_1.2 emissions_f_0_1.2" vType="DEFAULT_VEHTYPE" speedFactor="0.89" vaporized="">
        <emissions CO_abs="4279.487189" CO2_abs="343931.492041" HC_abs="27.360065" PMx_abs="5.160754" NOx_abs="134.019973" fuel_abs="109698.798548" electricity_abs="0"/>
    </tripinfo>
    <tripinfo id="f_0_1.3" depart="49.00" departLane="C4C3_0" departPos="5.10" departSpeed="0.00" departDelay="1.00" arrival="185.00" arrivalLane="C2C1_0" arrivalPos="492.80" arrivalSpeed="11.83" duration="136.00" routeLength="1495.00" waitingTime="0.00" waitingCount="0" stopTime="0.00" timeLoss="20.85" rerouteNo="0" devices="tripinfo_f_0_1.3 emissions_f_0_1.3" vType="DEFAULT_VEHTYPE" speedFactor="0.94" vaporized="">
        <emissions CO_abs="4423.358833" CO2_abs="348526.892599" HC_abs="27.993673" PMx_abs="5.414106" NOx_abs="136.857758" fuel_abs="111164.366380" electricity_abs="0"/>
    </tripinfo>
    <tripinfo id="f_0_2.0" depart="80.00" departLane="E2D2_0" departPos="5.10" departSpeed="0.00" departDelay="0.00" arrival="185.00" arrivalLane="C2B2_0" arrivalPos="492.80" arrivalSpeed="14.88" duration="105.00" routeLength="1495.00" waitingTime="0.00" waitingCount="0" stopTime="0.00" timeLoss="9.04" rerouteNo="0" devices="tripinfo_f_0_2.0 emissions_f_0_2.0" vType="DEFAULT_VEHTYPE" speedFactor="1.12" vaporized="">
        <emissions CO_abs="2686.154524" CO2_abs="307909.900709" HC_abs="18.624509" PMx_abs="4.430516" NOx_abs="114.305900" fuel_abs="98209.144487" electricity_abs="0"/>
    </tripinfo>
    <tripinfo id="f_0_1.4" depart="52.00" departLane="C4C3_0" departPos="5.10" departSpeed="0.00" departDelay="3.00" arrival="187.00" arrivalLane="C2C1_0" arrivalPos="492.80" arrivalSpeed="11.83" duration="135.00" routeLength="1495.00" waitingTime="0.00" waitingCount="0" stopTime="0.00" timeLoss="9.20" rerouteNo="0" devices="tripinfo_f_0_1.4 emissions_f_0_1.4" vType="DEFAULT_VEHTYPE" speedFactor="0.86" vaporized="">
        <emissions CO_abs="2902.674152" CO2_abs="293331.932110" HC_abs="19.723729" PMx_abs="3.490057" NOx_abs="107.342513" fuel_abs="93560.452269" electricity_abs="0"/>
    </tripinfo>
    <tripinfo id="f_0_1.5" depart="55.00" departLane="C4C3_0" departPos="5.10" departSpeed="0.00" departDelay="1.00" arrival="189.00" arrivalLane="C2C1_0" arrivalPos="492.80" arrivalSpeed="14.81" duration="134.00" routeLength="1495.00" waitingTime="0.00" waitingCount="0" stopTime="0.00" timeLoss="34.67" rerouteNo="0" devices="tripinfo_f_0_1.5 emissions_f_0_1.5" vType="DEFAULT_VEHTYPE" speedFactor="1.09" vaporized="">
        <emissions CO_abs="4106.548353" CO2_abs="345037.825782" HC_abs="26.621560" PMx_abs="5.107313" NOx_abs="133.625853" fuel_abs="110051.651453" electricity_abs="0"/>
    </tripinfo>
    <tripinfo id="f_0_1.6" depart="58.00" departLane="C4C3_0" departPos="5.10" departSpeed="0.00" departDelay="0.00" arrival="191.00" arrivalLane="C2C1_0" arrivalPos="492.80" arrivalSpeed="13.80" duration="133.00" routeLength="1495.00" waitingTime="0.00" waitingCount="0" stopTime="0.00" timeLoss="27.19" rerouteNo="0" devices="tripinfo_f_0_1.6 emissions_f_0_1.6" vType="DEFAULT_VEHTYPE" speedFactor="1.03" vaporized="">
        <emissions CO_abs="4565.509405" CO2_abs="370963.833361" HC_abs="29.318467" PMx_abs="5.832733" NOx_abs="146.086703" fuel_abs="118320.579224" electricity_abs="0"/>
    </tripinfo>
    <tripinfo id="f_0_1.7" depart="68.00" departLane="C4C3_0" departPos="5.10" departSpeed="0.00" departDelay="0.00" arrival="192.00" arrivalLane="C2C1_0" arrivalPos="492.80" arrivalSpeed="14.51" duration="124.00" routeLength="1495.00" waitingTime="0.00" waitingCount="0" stopTime="0.00" timeLoss="20.96" rerouteNo="0" devices="tripinfo_f_0_1.7 emissions_f_0_1.7" vType="DEFAULT_VEHTYPE" speedFactor="1.05" vaporized="">
        <emissions CO_abs="4450.682008" CO2_abs="364924.133382" HC_abs="28.345496" PMx_abs="5.769836" NOx_abs="142.268490" fuel_abs="116394.176475" electricity_abs="0"/>
    </tripinfo>
    <tripinfo id="f_0_2.1" depart="83.00" departLane="E2D2_0" departPos="5.10" departSpeed="0.00" departDelay="1.00" arrival="209.00" arrivalLane="C2B2_0" arrivalPos="492.80" arrivalSpeed="12.64" duration="126.00" routeLength="1495.00" waitingTime="3.00" waitingCount="1" stopTime="0.00" timeLoss="17.40" rerouteNo="0" devices="tripinfo_f_0_2.1 emissions_f_0_2.1" vType="DEFAULT_VEHTYPE" speedFactor="0.99" vaporized="">
        <emissions CO_abs="4287.261605" CO2_abs="342614.044282" HC_abs="26.818571" PMx_abs="5.083274" NOx_abs="130.988391" fuel_abs="109278.729414" electricity_abs="0"/>
    </tripinfo>
    <tripinfo id="f_0_2.2" depart="86.00" departLane="E2D2_0" departPos="5.10" departSpeed="0.00" departDelay="3.00" arrival="218.00" arrivalLane="C2B2_0" arrivalPos="492.80" arrivalSpeed="12.01" duration="132.00" routeLength="1495.00" waitingTime="0.00" waitingCount="0" stopTime="0.00" timeLoss="15.67" rerouteNo="0" devices="tripinfo_f_0_2.2 emissions_f_0_2.2" vType="DEFAULT_VEHTYPE" speedFactor="0.93" vaporized="">
        <emissions CO_abs="3622.562331" CO2_abs="328883.518264" HC_abs="23.668309" PMx_abs="4.465888" NOx_abs="123.645276" fuel_abs="104899.480532" electricity_abs="0"/>
    </tripinfo>
    <tripinfo id="f_0_2.3" depart="89.00" departLane="E2D2_0" departPos="5.10" departSpeed="0.00" departDelay="2.00" arrival="224.00" arrivalLane="C2B2_0" arrivalPos="492.80" arrivalSpeed="11.98" duration="135.00" routeLength="1495.00" waitingTime="0.00" waitingCount="0" stopTime="0.00" timeLoss="12.25" rerouteNo="0" devices="tripinfo_f_0_2.3 emissions_f_0_2.3" vType="DEFAULT_VEHTYPE" speedFactor="0.88" vaporized="">
        <emissions CO_abs="3567.742833" CO2_abs="318370.902626" HC_abs="23.356086" PMx_abs="4.288163" NOx_abs="120.089309" fuel_abs="101546.478090" electricity_abs="0"/>
    </tripinfo>
    <tripinfo id="f_0_2.4" depart="92.00" departLane="E2D2_0" departPos="5.10" departSpeed="0.00" departDelay="4.00" arrival="226.00" arrivalLane="C2B2_0" arrivalPos="492.80" arrivalSpeed="12.70" duration="134.00" routeLength="1495.00" waitingTime="0.00" waitingCount="0" stopTime="0.00" timeLoss="19.12" rerouteNo="0" devices="tripinfo_f_0_2.4 emissions_f_0_2.4" vType="DEFAULT_VEHTYPE" speedFactor="0.94" vaporized="">
        <emissions CO_abs="3928.567926" CO2_abs="329417.082935" HC_abs="25.368683" PMx_abs="4.847039" NOx_abs="127.290008" fuel_abs="105069.371070" electricity_abs="0"/>
    </tripinfo>
    <tripinfo id="f_0_2.5" depart="95.00" departLane="E2D2_0" departPos="5.10" departSpeed="0.00" departDelay="3.00" arrival="228.00" arrivalLane="C2B2_0" arrivalPos="492.80" arrivalSpeed="12.01" duration="133.00" routeLength="1495.00" waitingTime="0.00" waitingCount="0" stopTime="0.00" timeLoss="17.33" rerouteNo="0" devices="tripinfo_f_0_2.5 emissions_f_0_2.5" vType="DEFAULT_VEHTYPE" speedFactor="0.94" vaporized="">
        <emissions CO_abs="3989.817365" CO2_abs="344549.280242" HC_abs="25.583209" PMx_abs="4.978875" NOx_abs="131.926515" fuel_abs="109895.903050" electricity_abs="0"/>
    </tripinfo>
    <tripinfo id="f_0_2.6" depart="98.00" departLane="E2D2_0" departPos="5.10" departSpeed="0.00" departDelay="4.00" arrival="229.00" arrivalLane="C2B2_0" arrivalPos="492.80" arrivalSpeed="14.19" duration="131.00" routeLength="1495.00" waitingTime="0.00" waitingCount="0" stopTime="0.00" timeLoss="37.91" rerouteNo="0" devices="tripinfo_f_0_2.6 emissions_f_0_2.6" vType="DEFAULT_VEHTYPE" speedFactor="1.16" vaporized="">
        <emissions CO_abs="4943.532370" CO2_abs="392425.933383" HC_abs="31.263623" PMx_abs="6.270681" NOx_abs="154.555238" fuel_abs="125165.985922" electricity_abs="0"/>
    </tripinfo>
    <tripinfo id="f_0_2.7" depart="101.00" departLane="E2D2_0" departPos="5.10" departSpeed="0.00" departDelay="6.00" arrival="231.00" arrivalLane="C2B2_0" arrivalPos="492.80" arrivalSpeed="12.99" duration="130.00" routeLength="1495.00" waitingTime="0.00" waitingCount="0" stopTime="0.00" timeLoss="23.84" rerouteNo="0" devices="tripinfo_f_0_2.7 emissions_f_0_2.7" vType="DEFAULT_VEHTYPE" speedFactor="1.02" vaporized="">
        <emissions CO_abs="5072.035208" CO2_abs="394026.874034" HC_abs="31.947359" PMx_abs="6.452346" NOx_abs="156.467709" fuel_abs="125676.472711" electricity_abs="0"/>
    </tripinfo>
    <tripinfo id="f_0_2.8" depart="104.00" departLane="E2D2_0" departPos="5.10" departSpeed="0.00" departDelay="8.00" arrival="233.00" arrivalLane="C2B2_0" arrivalPos="492.80" arrivalSpeed="13.61" duration="129.00" routeLength="1495.00" waitingTime="0.00" waitingCount="0" stopTime="0.00" timeLoss="21.78" rerouteNo="0" devices="tripinfo_f_0_2.8 emissions_f_0_2.8" vType="DEFAULT_VEHTYPE" speedFactor="1.01" vaporized="">
        <emissions CO_abs="4314.952868" CO2_abs="361345.986414" HC_abs="27.566604" PMx_abs="5.527095" NOx_abs="140.164929" fuel_abs="115253.043213" electricity_abs="0"/>
    </tripinfo>
    <tripinfo id="f_0_2.9" depart="107.00" departLane="E2D2_0" departPos="5.10" departSpeed="0.00" departDelay="10.00" arrival="235.00" arrivalLane="C2B2_0" arrivalPos="492.80" arrivalSpeed="12.47" duration="128.00" routeLength="1495.00" waitingTime="0.00" waitingCount="0" stopTime="0.00" timeLoss="17.16" rerouteNo="0" devices="tripinfo_f_0_2.9 emissions_f_0_2.9" vType="DEFAULT_VEHTYPE" speedFactor="0.97" vaporized="">
        <emissions CO_abs="3673.457172" CO2_abs="332973.884524" HC_abs="23.799410" PMx_abs="4.680809" NOx_abs="126.077495" fuel_abs="106203.912379" electricity_abs="0"/>
    </tripinfo>
    <tripinfo id="f_0_3.0" depart="122.00" departLane="C0C1_0" departPos="5.10" departSpeed="0.00" departDelay="0.00" arrival="252.00" arrivalLane="C2C3_0" arrivalPos="492.80" arrivalSpeed="11.62" duration="130.00" routeLength="1495.00" waitingTime="0.00" waitingCount="0" stopTime="0.00" timeLoss="8.58" rerouteNo="0" devices="tripinfo_f_0_3.0 emissions_f_0_3.0" vType="DEFAULT_VEHTYPE" speedFactor="0.89" vaporized="">
        <emissions CO_abs="3006.462184" CO2_abs="285648.267798" HC_abs="20.162138" PMx_abs="3.912222" NOx_abs="108.118026" fuel_abs="91109.182732" electricity_abs="0"/>
    </tripinfo>
    <tripinfo id="f_0_3.1" depart="125.00" departLane="C0C1_0" departPos="5.10" departSpeed="0.00" departDelay="1.00" arrival="266.00" arrivalLane="C2C3_0" arrivalPos="492.80" arrivalSpeed="10.23" duration="141.00" routeLength="1495.00" waitingTime="0.00" waitingCount="0" stopTime="0.00" timeLoss="9.84" rerouteNo="0" devices="tripinfo_f_0_3.1 emissions_f_0_3.1" vType="DEFAULT_VEHTYPE" speedFactor="0.83" vaporized="">
        <emissions CO_abs="3269.034413" CO2_abs="298459.145370" HC_abs="21.588179" PMx_abs="3.605571" NOx_abs="110.117060" fuel_abs="95195.915371" electricity_abs="0"/>
    </tripinfo>
    <tripinfo id="f_0_3.2" depart="139.00" departLane="C0C1_0" departPos="5.10" departSpeed="0.00" departDelay="0.00" arrival="273.00" arrivalLane="C2C3_0" arrivalPos="492.80" arrivalSpeed="10.98" duration="134.00" routeLength="1495.00" waitingTime="0.00" waitingCount="0" stopTime="0.00" timeLoss="9.96" rerouteNo="0" devices="tripinfo_f_0_3.2 emissions_f_0_3.2" vType="DEFAULT_VEHTYPE" speedFactor="0.87" vaporized="">
        <emissions CO_abs="2955.971590" CO2_abs="300034.625745" HC_abs="19.990562" PMx_abs="3.600200" NOx_abs="109.872641" fuel_abs="95698.270933" electricity_abs="0"/>
    </tripinfo>
    <tripinfo id="f_0_3.3" depart="145.00" departLane="C0C1_0" departPos="5.10" departSpeed="0.00" departDelay="0.00" arrival="275.00" arrivalLane="C2C3_0" arrivalPos="492.80" arrivalSpeed="12.36" duration="130.00" routeLength="1495.00" waitingTime="0.00" waitingCount="0" stopTime="0.00" timeLoss="11.75" rerouteNo="0" devices="tripinfo_f_0_3.3 emissions_f_0_3.3" vType="DEFAULT_VEHTYPE" speedFactor="0.92" vaporized="">
        <emissions CO_abs="3008.241799" CO2_abs="305873.876740" HC_abs="20.429891" PMx_abs="3.903939" NOx_abs="113.494515" fuel_abs="97560.465380" electricity_abs="0"/>
    </tripinfo>
    <tripinfo id="f_0_3.4" depart="148.00" departLane="C0C1_0" departPos="5.10" departSpeed="0.00" departDelay="1.00" arrival="276.00" arrivalLane="C2C3_0" arrivalPos="492.80" arrivalSpeed="12.46" duration="128.00" routeLength="1495.00" waitingTime="0.00" waitingCount="0" stopTime="0.00" timeLoss="14.40" rerouteNo="0" devices="tripinfo_f_0_3.4 emissions_f_0_3.4" vType="DEFAULT_VEHTYPE" speedFactor="0.95" vaporized="">
        <emissions CO_abs="3674.878424" CO2_abs="339037.919460" HC_abs="24.238584" PMx_abs="4.852039" NOx_abs="129.365889" fuel_abs="108137.951157" electricity_abs="0"/>
    </tripinfo>
    <tripinfo id="f_1_1.0" depart="200.00" departLane="C4C3_0" departPos="5.10" departSpeed="0.00" departDelay="0.00" arrival="303.00" arrivalLane="C2C1_0" arrivalPos="492.80" arrivalSpeed="14.94" duration="103.00" routeLength="1495.00" waitingTime="0.00" waitingCount="0" stopTime="0.00" timeLoss="7.44" rerouteNo="0" devices="tripinfo_f_1_1.0 emissions_f_1_1.0" vType="DEFAULT_VEHTYPE" speedFactor="1.13" vaporized="">
        <emissions CO_abs="2408.628446" CO2_abs="285309.484541" HC_abs="17.003554" PMx_abs="4.130937" NOx_abs="106.098043" fuel_abs="91000.599949" electricity_abs="0"/>
    </tripinfo>
    <tripinfo id="f_1_3.0" depart="205.00" departLane="C0C1_0" departPos="5.10" departSpeed="0.00" departDelay="0.00" arrival="304.00" arrivalLane="C2C3_0" arrivalPos="492.80" arrivalSpeed="16.07" duration="99.00" routeLength="1495.00" waitingTime="0.00" waitingCount="0" stopTime="0.00" timeLoss="7.63" rerouteNo="0" devices="tripinfo_f_1_3.0 emissions_f_1_3.0" vType="DEFAULT_VEHTYPE" speedFactor="1.18" vaporized="">
        <emissions CO_abs="2349.756242" CO2_abs="301034.413399" HC_abs="16.687768" PMx_abs="4.224133" NOx_abs="109.920773" fuel_abs="96016.134546" electricity_abs="0"/>
    </tripinfo>
    <tripinfo id="f_1_1.1" depart="208.00" departLane="C4C3_0" departPos="5.10" departSpeed="0.00" departDelay="0.00" arrival="310.00" arrivalLane="C2C1_0" arrivalPos="492.80" arrivalSpeed="14.97" duration="102.00" routeLength="1495.00" waitingTime="0.00" waitingCount="0" stopTime="0.00" timeLoss="8.08" rerouteNo="0" devices="tripinfo_f_1_1.1 emissions_f_1_1.1" vType="DEFAULT_VEHTYPE" speedFactor="1.15" vaporized="">
        <emissions CO_abs="2265.570584" CO2_abs="285313.239760" HC_abs="16.242760" PMx_abs="4.038653" NOx_abs="104.993543" fuel_abs="91001.844583" electricity_abs="0"/>
    </tripinfo>
    <tripinfo id="f_1_3.1" depart="214.00" departLane="C0C1_0" departPos="5.10" departSpeed="0.00" departDelay="0.00" arrival="314.00" arrivalLane="C2C3_0" arrivalPos="492.80" arrivalSpeed="15.93" duration="100.00" routeLength="1495.00" waitingTime="0.00" waitingCount="0" stopTime="0.00" timeLoss="7.47" rerouteNo="0" devices="tripinfo_f_1_3.1 emissions_f_1_3.1" vType="DEFAULT_VEHTYPE" speedFactor="1.17" vaporized="">
        <emissions CO_abs="2024.875496" CO2_abs="279832.553818" HC_abs="14.612609" PMx_abs="3.738039" NOx_abs="100.528478" fuel_abs="89253.848130" electricity_abs="0"/>
    </tripinfo>
    <tripinfo id="f_1_1.2" depart="222.00" departLane="C4C3_0" departPos="5.10" departSpeed="0.00" departDelay="0.00" arrival="322.00" arrivalLane="C2C1_0" arrivalPos="492.80" arrivalSpeed="15.84" duration="100.00" routeLength="1495.00" waitingTime="0.00" waitingCount="0" stopTime="0.00" timeLoss="7.90" rerouteNo="0" devices="tripinfo_f_1_1.2 emissions_f_1_1.2" vType="DEFAULT_VEHTYPE" speedFactor="1.18" vaporized="">
        <emissions CO_abs="2191.517768" CO2_abs="288838.412350" HC_abs="15.608184" PMx_abs="3.928867" NOx_abs="103.861461" fuel_abs="92126.298292" electricity_abs="0"/>
    </tripinfo>
    <tripinfo id="f_1_2.0" depart="201.00" departLane="E2D2_0" departPos="5.10" departSpeed="0.00" departDelay="0.00" arrival="327.00" arrivalLane="C2B2_0" arrivalPos="492.80" arrivalSpeed="12.57" duration="126.00" routeLength="1495.00" waitingTime="0.00" waitingCount="0" stopTime="0.00" timeLoss="9.62" rerouteNo="0" devices="tripinfo_f_1_2.0 emissions_f_1_2.0" vType="DEFAULT_VEHTYPE" speedFactor="0.93" vaporized="">
        <emissions CO_abs="3048.313602" CO2_abs="304687.038759" HC_abs="20.708399" PMx_abs="4.179540" NOx_abs="114.918618" fuel_abs="97181.622114" electricity_abs="0"/>
    </tripinfo>
    <tripinfo id="f_1_0.0" depart="209.00" departLane="A2B2_0" departPos="5.10" departSpeed="0.00" departDelay="0.00" arrival="332.00" arrivalLane="C2D2_0" arrivalPos="492.80" arrivalSpeed="13.91" duration="123.00" routeLength="1495.00" waitingTime="2.00" waitingCount="1" stopTime="0.00" timeLoss="15.20" rerouteNo="0" devices="tripinfo_f_1_0.0 emissions_f_1_0.0" vType="DEFAULT_VEHTYPE" speedFactor="1.01" vaporized="">
        <emissions CO_abs="3614.845778" CO2_abs="325348.219588" HC_abs="23.123219" PMx_abs="4.529831" NOx_abs="121.881127" fuel_abs="103771.742297" electricity_abs="0"/>
    </tripinfo>
    <tripinfo id="f_1_3.2" depart="217.00" departLane="C0C1_0" departPos="5.10" departSpeed="0.00" departDelay="2.00" arrival="334.00" arrivalLane="C2C3_0" arrivalPos="492.80" arrivalSpeed="12.87" duration="117.00" routeLength="1495.00" waitingTime="0.00" waitingCount="0" stopTime="0.00" timeLoss="8.35" rerouteNo="0" devices="tripinfo_f_1_3.2 emissions_f_1_3.2" vType="DEFAULT_VEHTYPE" speedFactor="0.99" vaporized="">
        <emissions CO_abs="2416.176763" CO2_abs="285940.616501" HC_abs="16.911904" PMx_abs="3.684408" NOx_abs="104.743398" fuel_abs="91202.365169" electricity_abs="0"/>
    </tripinfo>
    <tripinfo id="f_1_3.3" depart="220.00" departLane="C0C1_0" departPos="5.10" departSpeed="0.00" departDelay="0.00" arrival="336.00" arrivalLane="C2C3_0" arrivalPos="492.80" arrivalSpeed="13.84" duration="116.00" routeLength="1495.00" waitingTime="0.00" waitingCount="0" stopTime="0.00" timeLoss="9.65" rerouteNo="0" devices="tripinfo_f_1_3.3 emissions_f_1_3.3" vType="DEFAULT_VEHTYPE" speedFactor="1.02" vaporized="">
        <emissions CO_abs="2635.651690" CO2_abs="303465.046553" HC_abs="18.393478" PMx_abs="4.035265" NOx_abs="111.552469" fuel_abs="96791.816758" electricity_abs="0"/>
    </tripinfo>
    <tripinfo id="f_1_1.3" depart="225.00" departLane="C4C3_0" departPos="5.10" departSpeed="0.00" departDelay="0.00" arrival="338.00" arrivalLane="C2C1_0" arrivalPos="492.80" arrivalSpeed="13.59" duration="113.00" routeLength="1495.00" waitingTime="0.00" waitingCount="0" stopTime="0.00" timeLoss="8.19" rerouteNo="0" devices="tripinfo_f_1_1.3 emissions_f_1_1.3" vType="DEFAULT_VEHTYPE" speedFactor="1.03" vaporized="">
        <emissions CO_abs="2309.004783" CO2_abs="283676.583868" HC_abs="16.312141" PMx_abs="3.683999" NOx_abs="103.584464" fuel_abs="90480.160912" electricity_abs="0"/>
    </tripinfo>
    <tripinfo id="f_1_1.4" depart="231.00" departLane="C4C3_0" departPos="5.10" departSpeed="0.00" departDelay="0.00" arrival="342.00" arrivalLane="C2C1_0" arrivalPos="492.80" arrivalSpeed="14.14" duration="111.00" routeLength="1495.00" waitingTime="0.00" waitingCount="0" stopTime="0.00" timeLoss="7.84" rerouteNo="0" devices="tripinfo_f_1_1.4 emissions_f_1_1.4" vType="DEFAULT_VEHTYPE" speedFactor="1.04" vaporized="">
        <emissions CO_abs="2245.643169" CO2_abs="286588.755020" HC_abs="15.896671" PMx_abs="3.635128" NOx_abs="103.372954" fuel_abs="91409.052096" electricity_abs="0"/>
    </tripinfo>
    <tripinfo id="f_1_3.4" depart="223.00" departLane="C0C1_0" departPos="5.10" departSpeed="0.00" departDelay="2.00" arrival="343.00" arrivalLane="C2C3_0" arrivalPos="492.80" arrivalSpeed="12.97" duration="120.00" routeLength="1495.00" waitingTime="0.00" waitingCount="0" stopTime="0.00" timeLoss="8.65" rerouteNo="0" devices="tripinfo_f_1_3.4 emissions_f_1_3.4" vType="DEFAULT_VEHTYPE" speedFactor="0.97" vaporized="">
        <emissions CO_abs="2568.270706" CO2_abs="292709.889583" HC_abs="17.835497" PMx_abs="3.761939" NOx_abs="107.455106" fuel_abs="93361.539139" electricity_abs="0"/>
    </tripinfo>
    <tripinfo id="f_1_3.5" depart="226.00" departLane="C0C1_0" departPos="5.10" departSpeed="0.00" departDelay="4.00" arrival="344.00" arrivalLane="C2C3_0" arrivalPos="492.80" arrivalSpeed="14.88" duration="118.00" routeLength="1495.00" waitingTime="0.00" waitingCount="0" stopTime="0.00" timeLoss="20.24" rerouteNo="0" devices="tripinfo_f_1_3.5 emissions_f_1_3.5" vType="DEFAULT_VEHTYPE" speedFactor="1.10" vaporized="">
        <emissions CO_abs="2935.714942" CO2_abs="314287.491213" HC_abs="20.065760" PMx_abs="4.340022" NOx_abs="117.550555" fuel_abs="100243.590973" electricity_abs="0"/>
    </tripinfo>
    <tripinfo id="f_1_2.1" depart="232.00" departLane="E2D2_0" departPos="5.10" departSpeed="0.00" departDelay="0.00" arrival="345.00" arrivalLane="C2B2_0" arrivalPos="492.80" arrivalSpeed="14.62" duration="113.00" routeLength="1495.00" waitingTime="1.00" waitingCount="1" stopTime="0.00" timeLoss="13.86" rerouteNo="0" devices="tripinfo_f_1_2.1 emissions_f_1_2.1" vType="DEFAULT_VEHTYPE" speedFactor="1.09" vaporized="">
        <emissions CO_abs="3191.547450" CO2_abs="319266.749342" HC_abs="21.124766" PMx_abs="4.578875" NOx_abs="119.145694" fuel_abs="101831.702930" electricity_abs="0"/>
    </tripinfo>
    <tripinfo id="f_1_3.6" depart="229.00" departLane="C0C1_0" departPos="5.10" departSpeed="0.00" departDelay="5.00" arrival="358.00" arrivalLane="C2C3_0" arrivalPos="492.80" arrivalSpeed="12.14" duration="129.00" routeLength="1495.00" waitingTime="0.00" waitingCount="0" stopTime="0.00" timeLoss="8.97" rerouteNo="0" devices="tripinfo_f_1_3.6 emissions_f_1_3.6" vType="DEFAULT_VEHTYPE" speedFactor="0.90" vaporized="">
        <emissions CO_abs="3014.135954" CO2_abs="295570.237742" HC_abs="20.225572" PMx_abs="3.913219" NOx_abs="110.603137" fuel_abs="94273.958053" electricity_abs="0"/>
    </tripinfo>
    <tripinfo id="f_1_3.7" depart="232.00" departLane="C0C1_0" departPos="5.10" departSpeed="0.00" departDelay="2.00" arrival="360.00" arrivalLane="C2C3_0" arrivalPos="492.80" arrivalSpeed="14.49" duration="128.00" routeLength="1495.00" waitingTime="0.00" waitingCount="0" stopTime="0.00" timeLoss="28.65" rerouteNo="0" devices="tripinfo_f_1_3.7 emissions_f_1_3.7" vType="DEFAULT_VEHTYPE" speedFactor="1.09" vaporized="">
        <emissions CO_abs="3872.731066" CO2_abs="326103.951857" HC_abs="24.961012" PMx_abs="5.035762" NOx_abs="127.138398" fuel_abs="104012.369432" electricity_abs="0"/>
    </tripinfo>
    <tripinfo id="f_1_3.8" depart="235.00" departLane="C0C1_0" departPos="5.10" departSpeed="0.00" departDelay="0.00" arrival="361.00" arrivalLane="C2C3_0" arrivalPos="492.80" arrivalSpeed="13.45" duration="126.00" routeLength="1495.00" waitingTime="0.00" waitingCount="0" stopTime="0.00" timeLoss="17.99" rerouteNo="0" devices="tripinfo_f_1_3.8 emissions_f_1_3.8" vType="DEFAULT_VEHTYPE" speedFactor="1.00" vaporized="">
        <emissions CO_abs="4022.704235" CO2_abs="352238.303287" HC_abs="25.998170" PMx_abs="5.342302" NOx_abs="136.179399" fuel_abs="112348.053073" electricity_abs="0"/>
    </tripinfo>
    <tripinfo id="f_1_3.9" depart="238.00" departLane="C0C1_0" departPos="5.10" departSpeed="0.00" departDelay="1.00" arrival="367.00" arrivalLane="C2C3_0" arrivalPos="492.80" arrivalSpeed="12.41" duration="129.00" routeLength="1495.00" waitingTime="0.00" waitingCount="0" stopTime="0.00" timeLoss="9.46" rerouteNo="0" devices="tripinfo_f_1_3.9 emissions_f_1_3.9" vType="DEFAULT_VEHTYPE" speedFactor="0.90" vaporized="">
        <emissions CO_abs="2885.879278" CO2_abs="301272.650298" HC_abs="19.709185" PMx_abs="3.731077" NOx_abs="110.690437" fuel_abs="96092.989206" electricity_abs="0"/>
    </tripinfo>
    <tripinfo id="f_1_0.1" depart="230.00" departLane="A2B2_0" departPos="5.10" departSpeed="0.00" departDelay="0.00" arrival="368.00" arrivalLane="C2D2_0" arrivalPos="492.80" arrivalSpeed="13.28" duration="138.00" routeLength="1495.00" waitingTime="11.00" waitingCount="1" stopTime="0.00" timeLoss="25.17" rerouteNo="0" devices="tripinfo_f_1_0.1 emissions_f_1_0.1" vType="DEFAULT_VEHTYPE" speedFactor="0.96" vaporized="">
        <emissions CO_abs="5174.135531" CO2_abs="343273.525379" HC_abs="31.063271" PMx_abs="5.025584" NOx_abs="131.321104" fuel_abs="109489.723392" electricity_abs="0"/>
    </tripinfo>
    <tripinfo id="f_1_0.2" depart="233.00" departLane="A2B2_0" departPos="5.10" departSpeed="0.00" departDelay="2.00" arrival="370.00" arrivalLane="C2D2_0" arrivalPos="492.80" arrivalSpeed="13.90" duration="137.00" routeLength="1495.00" waitingTime="9.00" waitingCount="1" stopTime="0.00" timeLoss="32.48" rerouteNo="0" devices="tripinfo_f_1_0.2 emissions_f_1_0.2" vType="DEFAULT_VEHTYPE" speedFactor="1.04" vaporized="">