<?xml version="1.0" encoding="UTF-8"?>

<!-- generated on 2024-08-22 12:40:07 by Eclipse SUMO sumo Version 1.17.0
<configuration xmlns:xsi="http://www.w3.org/2001/XMLSchema-instance" xsi:noNamespaceSchemaLocation="http://sumo.dlr.de/xsd/sumoConfiguration.xsd">

    <input>
        <net-file value="single_no_lights.net.xml"/>
        <route-files value="single_3.rou.xml"/>
    </input>

    <output>
        <tripinfo-output value="emissions_test\z_no_lights_3_emissions_tripinfo_single.xml"/>
    </output>

    <processing>
        <time-to-teleport value="-1"/>
    </processing>

    <emissions>
        <device.emissions.probability value="1.0"/>
    </emissions>

    <traci_server>
        <remote-port value="57266"/>
    </traci_server>

</configuration>
-->

<tripinfos xmlns:xsi="http://www.w3.org/2001/XMLSchema-instance" xsi:noNamespaceSchemaLocation="http://sumo.dlr.de/xsd/tripinfo_file.xsd">
    <tripinfo id="f_0_0.0" depart="2.00" departLane="A2B2_0" departPos="5.10" departSpeed="0.00" departDelay="0.00" arrival="114.00" arrivalLane="C2D2_0" arrivalPos="492.80" arrivalSpeed="14.19" duration="112.00" routeLength="1495.00" waitingTime="0.00" waitingCount="0" stopTime="0.00" timeLoss="9.59" rerouteNo="0" devices="tripinfo_f_0_0.0 emissions_f_0_0.0" vType="DEFAULT_VEHTYPE" speedFactor="1.06" vaporized="">
        <emissions CO_abs="2759.149223" CO2_abs="317488.061611" HC_abs="19.149931" PMx_abs="4.394248" NOx_abs="117.847537" fuel_abs="101264.300419" electricity_abs="0"/>
    </tripinfo>
    <tripinfo id="f_0_0.1" depart="5.00" departLane="A2B2_0" departPos="5.10" departSpeed="0.00" departDelay="0.00" arrival="130.00" arrivalLane="C2D2_0" arrivalPos="492.80" arrivalSpeed="12.11" duration="125.00" routeLength="1495.00" waitingTime="0.00" waitingCount="0" stopTime="0.00" timeLoss="10.05" rerouteNo="0" devices="tripinfo_f_0_0.1 emissions_f_0_0.1" vType="DEFAULT_VEHTYPE" speedFactor="0.94" vaporized="">
        <emissions CO_abs="3011.089291" CO2_abs="309610.640176" HC_abs="20.286368" PMx_abs="4.095479" NOx_abs="115.014846" fuel_abs="98752.171544" electricity_abs="0"/>
    </tripinfo>
    <tripinfo id="f_0_0.2" depart="10.00" departLane="A2B2_0" departPos="5.10" departSpeed="0.00" departDelay="0.00" arrival="132.00" arrivalLane="C2D2_0" arrivalPos="492.80" arrivalSpeed="13.37" duration="122.00" routeLength="1495.00" waitingTime="0.00" waitingCount="0" stopTime="0.00" timeLoss="14.94" rerouteNo="0" devices="tripinfo_f_0_0.2 emissions_f_0_0.2" vType="DEFAULT_VEHTYPE" speedFactor="1.01" vaporized="">
        <emissions CO_abs="3674.004270" CO2_abs="331302.990785" HC_abs="23.883418" PMx_abs="5.046278" NOx_abs="128.053604" fuel_abs="105670.534750" electricity_abs="0"/>
    </tripinfo>
    <tripinfo id="f_0_0.3" depart="16.00" departLane="A2B2_0" departPos="5.10" departSpeed="0.00" departDelay="0.00" arrival="134.00" arrivalLane="C2D2_0" arrivalPos="492.80" arrivalSpeed="14.87" duration="118.00" routeLength="1495.00" waitingTime="0.00" waitingCount="0" stopTime="0.00" timeLoss="17.62" rerouteNo="0" devices="tripinfo_f_0_0.3 emissions_f_0_0.3" vType="DEFAULT_VEHTYPE" speedFactor="1.08" vaporized="">
        <emissions CO_abs="3741.450881" CO2_abs="344885.024343" HC_abs="24.531558" PMx_abs="5.304064" NOx_abs="132.756012" fuel_abs="110002.511406" electricity_abs="0"/>
    </tripinfo>
    <tripinfo id="f_0_0.4" depart="20.00" departLane="A2B2_0" departPos="5.10" departSpeed="0.00" departDelay="0.00" arrival="136.00" arrivalLane="C2D2_0" arrivalPos="492.80" arrivalSpeed="13.30" duration="116.00" routeLength="1495.00" waitingTime="0.00" waitingCount="0" stopTime="0.00" timeLoss="10.86" rerouteNo="0" devices="tripinfo_f_0_0.4 emissions_f_0_0.4" vType="DEFAULT_VEHTYPE" speedFactor="1.03" vaporized="">
        <emissions CO_abs="2705.666157" CO2_abs="309351.167443" HC_abs="18.560612" PMx_abs="4.046393" NOx_abs="113.147535" fuel_abs="98669.271358" electricity_abs="0"/>
    </tripinfo>
    <tripinfo id="f_0_1.0" depart="26.00" departLane="C4C3_0" departPos="5.10" departSpeed="0.00" departDelay="0.00" arrival="137.00" arrivalLane="C2C1_0" arrivalPos="492.80" arrivalSpeed="13.46" duration="111.00" routeLength="1495.00" waitingTime="0.00" waitingCount="0" stopTime="0.00" timeLoss="7.88" rerouteNo="0" devices="tripinfo_f_0_1.0 emissions_f_0_1.0" vType="DEFAULT_VEHTYPE" speedFactor="1.05" vaporized="">
        <emissions CO_abs="2168.643629" CO2_abs="285105.661069" HC_abs="15.371336" PMx_abs="3.546938" NOx_abs="102.643860" fuel_abs="90936.023806" electricity_abs="0"/>
    </tripinfo>
    <tripinfo id="f_0_1.1" depart="29.00" departLane="C4C3_0" departPos="5.10" departSpeed="0.00" departDelay="2.00" arrival="160.00" arrivalLane="C2C1_0" arrivalPos="492.80" arrivalSpeed="11.81" duration="131.00" routeLength="1495.00" waitingTime="0.00" waitingCount="0" stopTime="0.00" timeLoss="9.02" rerouteNo="0" devices="tripinfo_f_0_1.1 emissions_f_0_1.1" vType="DEFAULT_VEHTYPE" speedFactor="0.89" vaporized="">
        <emissions CO_abs="2920.847370" CO2_abs="291223.536880" HC_abs="19.701872" PMx_abs="3.731225" NOx_abs="108.178385" fuel_abs="92887.667150" electricity_abs="0"/>
    </tripinfo>
    <tripinfo id="f_0_2.0" depart="40.00" departLane="E2D2_0" departPos="5.10" departSpeed="0.00" departDelay="0.00" arrival="165.00" arrivalLane="C2B2_0" arrivalPos="492.80" arrivalSpeed="12.90" duration="125.00" routeLength="1495.00" waitingTime="2.00" waitingCount="1" stopTime="0.00" timeLoss="15.79" rerouteNo="0" devices="tripinfo_f_0_2.0 emissions_f_0_2.0" vType="DEFAULT_VEHTYPE" speedFactor="0.99" vaporized="">
        <emissions CO_abs="3737.638761" CO2_abs="324972.276176" HC_abs="24.071711" PMx_abs="4.648005" NOx_abs="123.359702" fuel_abs="103651.787984" electricity_abs="0"/>
    </tripinfo>
    <tripinfo id="f_0_1.2" depart="32.00" departLane="C4C3_0" departPos="5.10" departSpeed="0.00" departDelay="3.00" arrival="167.00" arrivalLane="C2C1_0" arrivalPos="492.80" arrivalSpeed="11.12" duration="135.00" routeLength="1495.00" waitingTime="0.00" waitingCount="0" stopTime="0.00" timeLoss="8.98" rerouteNo="0" devices="tripinfo_f_0_1.2 emissions_f_0_1.2" vType="DEFAULT_VEHTYPE" speedFactor="0.86" vaporized="">
        <emissions CO_abs="3040.993894" CO2_abs="302055.255680" HC_abs="20.481646" PMx_abs="3.642949" NOx_abs="110.772927" fuel_abs="96342.800573" electricity_abs="0"/>
    </tripinfo>
    <tripinfo id="f_0_0.5" depart="25.00" departLane="A2B2_0" departPos="5.10" departSpeed="0.00" departDelay="0.00" arrival="172.00" arrivalLane="C2D2_0" arrivalPos="492.80" arrivalSpeed="11.39" duration="147.00" routeLength="1495.00" waitingTime="3.00" waitingCount="1" stopTime="0.00" timeLoss="17.19" rerouteNo="0" devices="tripinfo_f_0_0.5 emissions_f_0_0.5" vType="DEFAULT_VEHTYPE" speedFactor="0.83" vaporized="">
        <emissions CO_abs="4526.175594" CO2_abs="336957.705137" HC_abs="28.220319" PMx_abs="4.344390" NOx_abs="126.469456" fuel_abs="107475.518880" electricity_abs="0"/>
    </tripinfo>
    <tripinfo id="f_0_1.3" depart="42.00" departLane="C4C3_0" departPos="5.10" departSpeed="0.00" departDelay="0.00" arrival="174.00" arrivalLane="C2C1_0" arrivalPos="492.80" arrivalSpeed="11.73" duration="132.00" routeLength="1495.00" waitingTime="0.00" waitingCount="0" stopTime="0.00" timeLoss="9.07" rerouteNo="0" devices="tripinfo_f_0_1.3 emissions_f_0_1.3" vType="DEFAULT_VEHTYPE" speedFactor="0.88" vaporized="">
        <emissions CO_abs="2597.166865" CO2_abs="303207.613098" HC_abs="18.205724" PMx_abs="3.262692" NOx_abs="107.688627" fuel_abs="96710.579043" electricity_abs="0"/>
    </tripinfo>
    <tripinfo id="f_0_1.4" depart="45.00" departLane="C4C3_0" departPos="5.10" departSpeed="0.00" departDelay="0.00" arrival="176.00" arrivalLane="C2C1_0" arrivalPos="492.80" arrivalSpeed="13.94" duration="131.00" routeLength="1495.00" waitingTime="0.00" waitingCount="0" stopTime="0.00" timeLoss="24.50" rerouteNo="0" devices="tripinfo_f_0_1.4 emissions_f_0_1.4" vType="DEFAULT_VEHTYPE" speedFactor="1.02" vaporized="">
        <emissions CO_abs="3670.443474" CO2_abs="326093.074974" HC_abs="24.122368" PMx_abs="4.747904" NOx_abs="125.454780" fuel_abs="104009.096836" electricity_abs="0"/>
    </tripinfo>
    <tripinfo id="f_0_2.1" depart="43.00" departLane="E2D2_0" departPos="5.10" departSpeed="0.00" departDelay="1.00" arrival="177.00" arrivalLane="C2B2_0" arrivalPos="492.80" arrivalSpeed="12.39" duration="134.00" routeLength="1495.00" waitingTime="4.00" waitingCount="1" stopTime="0.00" timeLoss="19.40" rerouteNo="0" devices="tripinfo_f_0_2.1 emissions_f_0_2.1" vType="DEFAULT_VEHTYPE" speedFactor="0.94" vaporized="">
        <emissions CO_abs="4268.589200" CO2_abs="332310.697061" HC_abs="26.673384" PMx_abs="4.695238" NOx_abs="125.914188" fuel_abs="105992.781802" electricity_abs="0"/>
    </tripinfo>
    <tripinfo id="f_0_2.2" depart="46.00" departLane="E2D2_0" departPos="5.10" departSpeed="0.00" departDelay="1.00" arrival="180.00" arrivalLane="C2B2_0" arrivalPos="492.80" arrivalSpeed="13.85" duration="134.00" routeLength="1495.00" waitingTime="5.00" waitingCount="2" stopTime="0.00" timeLoss="26.54" rerouteNo="0" devices="tripinfo_f_0_2.2 emissions_f_0_2.2" vType="DEFAULT_VEHTYPE" speedFactor="1.01" vaporized="">
        <emissions CO_abs="5010.092309" CO2_abs="351186.555478" HC_abs="30.611280" PMx_abs="5.495574" NOx_abs="136.843131" fuel_abs="112013.041998" electricity_abs="0"/>
    </tripinfo>
    <tripinfo id="f_0_1.5" depart="51.00" departLane="C4C3_0" departPos="5.10" departSpeed="0.00" departDelay="0.00" arrival="182.00" arrivalLane="C2C1_0" arrivalPos="492.80" arrivalSpeed="11.67" duration="131.00" routeLength="1495.00" waitingTime="0.00" waitingCount="0" stopTime="0.00" timeLoss="9.11" rerouteNo="0" devices="tripinfo_f_0_1.5 emissions_f_0_1.5" vType="DEFAULT_VEHTYPE" speedFactor="0.89" vaporized="">
        <emissions CO_abs="2662.589849" CO2_abs="287441.576273" HC_abs="18.275878" PMx_abs="3.382734" NOx_abs="104.352212" fuel_abs="91681.616673" electricity_abs="0"/>
    </tripinfo>
    <tripinfo id="f_0_2.3" depart="50.00" departLane="E2D2_0" departPos="5.10" departSpeed="0.00" departDelay="0.00" arrival="183.00" arrivalLane="C2B2_0" arrivalPos="492.80" arrivalSpeed="12.53" duration="133.00" routeLength="1495.00" waitingTime="3.00" waitingCount="1" stopTime="0.00" timeLoss="21.97" rerouteNo="0" devices="tripinfo_f_0_2.3 emissions_f_0_2.3" vType="DEFAULT_VEHTYPE" speedFactor="0.97" vaporized="">
        <emissions CO_abs="4311.385265" CO2_abs="334729.383211" HC_abs="26.720140" PMx_abs="4.672828" NOx_abs="126.055890" fuel_abs="106764.294988" electricity_abs="0"/>
    </tripinfo>
    <tripinfo id="f_0_0.6" depart="29.00" departLane="A2B2_0" departPos="5.10" departSpeed="0.00" departDelay="0.00" arrival="184.00" arrivalLane="C2D2_0" arrivalPos="492.80" arrivalSpeed="12.04" duration="155.00" routeLength="1495.00" waitingTime="12.00" waitingCount="2" stopTime="0.00" timeLoss="39.90" rerouteNo="0" devices="tripinfo_f_0_0.6 emissions_f_0_0.6" vType="DEFAULT_VEHTYPE" speedFactor="0.94" vaporized="">
        <emissions CO_abs="6867.415606" CO2_abs="380967.899572" HC_abs="39.906581" PMx_abs="5.999472" NOx_abs="150.093583" fuel_abs="121512.786183" electricity_abs="0"/>
    </tripinfo>
    <tripinfo id="f_0_3.0" depart="80.00" departLane="C0C1_0" departPos="5.10" departSpeed="0.00" departDelay="0.00" arrival="185.00" arrivalLane="C2C3_0" arrivalPos="492.80" arrivalSpeed="14.58" duration="105.00" routeLength="1495.00" waitingTime="0.00" waitingCount="0" stopTime="0.00" timeLoss="7.13" rerouteNo="0" devices="tripinfo_f_0_3.0 emissions_f_0_3.0" vType="DEFAULT_VEHTYPE" speedFactor="1.10" vaporized="">
        <emissions CO_abs="2110.351781" CO2_abs="285634.280714" HC_abs="15.337250" PMx_abs="3.772804" NOx_abs="103.337366" fuel_abs="91104.405355" electricity_abs="0"/>
    </tripinfo>
    <tripinfo id="f_0_0.7" depart="32.00" departLane="A2B2_0" departPos="5.10" departSpeed="0.00" departDelay="0.00" arrival="186.00" arrivalLane="C2D2_0" arrivalPos="492.80" arrivalSpeed="13.85" duration="154.00" routeLength="1495.00" waitingTime="11.00" waitingCount="2" stopTime="0.00" timeLoss="54.57" rerouteNo="0" devices="tripinfo_f_0_0.7 emissions_f_0_0.7" vType="DEFAULT_VEHTYPE" speedFactor="1.09" vaporized="">
        <emissions CO_abs="7646.536737" CO2_abs="418387.890625" HC_abs="44.366791" PMx_abs="6.953399" NOx_abs="167.300395" fuel_abs="133447.831339" electricity_abs="0"/>
    </tripinfo>
    <tripinfo id="f_0_0.8" depart="35.00" departLane="A2B2_0" departPos="5.10" departSpeed="0.00" departDelay="1.00" arrival="187.00" arrivalLane="C2D2_0" arrivalPos="492.80" arrivalSpeed="14.09" duration="152.00" routeLength="1495.00" waitingTime="8.00" waitingCount="1" stopTime="0.00" timeLoss="47.02" rerouteNo="0" devices="tripinfo_f_0_0.8 emissions_f_0_0.8" vType="DEFAULT_VEHTYPE" speedFactor="1.03" vaporized="">
        <emissions CO_abs="7663.687418" CO2_abs="416683.241477" HC_abs="44.256094" PMx_abs="7.108221" NOx_abs="167.565033" fuel_abs="132903.922516" electricity_abs="0"/>
    </tripinfo>
    <tripinfo id="f_0_0.9" depart="39.00" departLane="A2B2_0" departPos="5.10" departSpeed="0.00" departDelay="0.00" arrival="191.00" arrivalLane="C2D2_0" arrivalPos="492.80" arrivalSpeed="14.02" duration="152.00" routeLength="1495.00" waitingTime="9.00" waitingCount="2" stopTime="0.00" timeLoss="49.04" rerouteNo="0" devices="tripinfo_f_0_0.9 emissions_f_0_0.9" vType="DEFAULT_VEHTYPE" speedFactor="1.05" vaporized="">
        <emissions CO_abs="7127.867766" CO2_abs="409076.931007" HC_abs="41.584706" PMx_abs="6.674693" NOx_abs="161.671588" fuel_abs="130477.988729" electricity_abs="0"/>
    </tripinfo>
    <tripinfo id="f_0_3.1" depart="83.00" departLane="C0C1_0" departPos="5.10" departSpeed="0.00" departDelay="2.00" arrival="196.00" arrivalLane="C2C3_0" arrivalPos="492.80" arrivalSpeed="13.68" duration="113.00" routeLength="1495.00" waitingTime="0.00" waitingCount="0" stopTime="0.00" timeLoss="7.93" rerouteNo="0" devices="tripinfo_f_0_3.1 emissions_f_0_3.1" vType="DEFAULT_VEHTYPE" speedFactor="1.03" vaporized="">
        <emissions CO_abs="2496.685402" CO2_abs="288121.335337" HC_abs="17.197560" PMx_abs="3.888681" NOx_abs="106.387313" fuel_abs="91897.741148" electricity_abs="0"/>
    </tripinfo>
    <tripinfo id="f_0_2.4" depart="65.00" departLane="E2D2_0" departPos="5.10" departSpeed="0.00" departDelay="0.00" arrival="197.00" arrivalLane="C2B2_0" arrivalPos="492.80" arrivalSpeed="12.39" duration="132.00" routeLength="1495.00" waitingTime="1.00" waitingCount="1" stopTime="0.00" timeLoss="16.13" rerouteNo="0" devices="tripinfo_f_0_2.4 emissions_f_0_2.4" vType="DEFAULT_VEHTYPE" speedFactor="0.93" vaporized="">
        <emissions CO_abs="3924.734410" CO2_abs="324787.774022" HC_abs="24.954559" PMx_abs="4.486771" NOx_abs="122.719050" fuel_abs="103593.232795" electricity_abs="0"/>
    </tripinfo>
    <tripinfo id="f_0_3.2" depart="86.00" departLane="C0C1_0" departPos="5.10" departSpeed="0.00" departDelay="1.00" arrival="198.00" arrivalLane="C2C3_0" arrivalPos="492.80" arrivalSpeed="13.60" duration="112.00" routeLength="1495.00" waitingTime="0.00" waitingCount="0" stopTime="0.00" timeLoss="8.13" rerouteNo="0" devices="tripinfo_f_0_3.2 emissions_f_0_3.2" vType="DEFAULT_VEHTYPE" speedFactor="1.04" vaporized="">
        <emissions CO_abs="2595.542185" CO2_abs="285167.562669" HC_abs="17.773331" PMx_abs="3.997484" NOx_abs="106.062913" fuel_abs="90955.557351" electricity_abs="0"/>
    </tripinfo>
    <tripinfo id="f_0_3.3" depart="89.00" departLane="C0C1_0" departPos="5.10" departSpeed="0.00" departDelay="3.00" arrival="201.00" arrivalLane="C2C3_0" arrivalPos="492.80" arrivalSpeed="14.11" duration="112.00" routeLength="1495.00" waitingTime="0.00" waitingCount="0" stopTime="0.00" timeLoss="7.89" rerouteNo="0" devices="tripinfo_f_0_3.3 emissions_f_0_3.3" vType="DEFAULT_VEHTYPE" speedFactor="1.04" vaporized="">
        <emissions CO_abs="2362.567707" CO2_abs="288614.965002" HC_abs="16.727316" PMx_abs="3.844009" NOx_abs="105.906381" fuel_abs="92055.194677" electricity_abs="0"/>
    </tripinfo>
    <tripinfo id="f_0_1.6" depart="56.00" departLane="C4C3_0" departPos="5.10" departSpeed="0.00" departDelay="0.00" arrival="205.00" arrivalLane="C2C1_0" arrivalPos="492.80" arrivalSpeed="10.29" duration="149.00" routeLength="1495.00" waitingTime="2.00" waitingCount="1" stopTime="0.00" timeLoss="18.19" rerouteNo="0" devices="tripinfo_f_0_1.6 emissions_f_0_1.6" vType="DEFAULT_VEHTYPE" speedFactor="0.83" vaporized="">
        <emissions CO_abs="4354.701623" CO2_abs="327854.794871" HC_abs="27.216754" PMx_abs="4.104069" NOx_abs="122.302448" fuel_abs="104572.172637" electricity_abs="0"/>
    </tripinfo>
    <tripinfo id="f_0_1.7" depart="59.00" departLane="C4C3_0" departPos="5.10" departSpeed="0.00" departDelay="1.00" arrival="207.00" arrivalLane="C2C1_0" arrivalPos="492.80" arrivalSpeed="12.09" duration="148.00" routeLength="1495.00" waitingTime="1.00" waitingCount="1" stopTime="0.00" timeLoss="23.81" rerouteNo="0" devices="tripinfo_f_0_1.7 emissions_f_0_1.7" vType="DEFAULT_VEHTYPE" speedFactor="0.87" vaporized="">
        <emissions CO_abs="5016.124375" CO2_abs="354251.303300" HC_abs="30.912691" PMx_abs="5.080191" NOx_abs="136.603501" fuel_abs="112991.007420" electricity_abs="0"/>
    </tripinfo>
    <tripinfo id="f_0_1.8" depart="62.00" departLane="C4C3_0" departPos="5.10" departSpeed="0.00" departDelay="2.00" arrival="208.00" arrivalLane="C2C1_0" arrivalPos="492.80" arrivalSpeed="12.36" duration="146.00" routeLength="1495.00" waitingTime="0.00" waitingCount="0" stopTime="0.00" timeLoss="32.44" rerouteNo="0" devices="tripinfo_f_0_1.8 emissions_f_0_1.8" vType="DEFAULT_VEHTYPE" speedFactor="0.95" vaporized="">
        <emissions CO_abs="5483.996059" CO2_abs="371056.489761" HC_abs="33.489735" PMx_abs="5.730879" NOx_abs="145.976372" fuel_abs="118350.801983" electricity_abs="0"/>
    </tripinfo>
    <tripinfo id="f_0_3.4" depart="92.00" departLane="C0C1_0" departPos="5.10" departSpeed="0.00" departDelay="5.00" arrival="209.00" arrivalLane="C2C3_0" arrivalPos="492.80" arrivalSpeed="13.56" duration="117.00" routeLength="1495.00" waitingTime="0.00" waitingCount="0" stopTime="0.00" timeLoss="8.19" rerouteNo="0" devices="tripinfo_f_0_3.4 emissions_f_0_3.4" vType="DEFAULT_VEHTYPE" speedFactor="1.00" vaporized="">
        <emissions CO_abs="2387.868492" CO2_abs="286640.667213" HC_abs="16.564493" PMx_abs="3.581569" NOx_abs="103.462850" fuel_abs="91425.761397" electricity_abs="0"/>
    </tripinfo>
    <tripinfo id="f_0_1.9" depart="69.00" departLane="C4C3_0" departPos="5.10" departSpeed="0.00" departDelay="0.00" arrival="210.00" arrivalLane="C2C1_0" arrivalPos="492.80" arrivalSpeed="14.87" duration="141.00" routeLength="1495.00" waitingTime="0.00" waitingCount="0" stopTime="0.00" timeLoss="47.27" rerouteNo="0" devices="tripinfo_f_0_1.9 emissions_f_0_1.9" vType="DEFAULT_VEHTYPE" speedFactor="1.15" vaporized="">
        <emissions CO_abs="5490.435114" CO2_abs="391764.574516" HC_abs="33.868425" PMx_abs="6.126279" NOx_abs="153.955297" fuel_abs="124955.510058" electricity_abs="0"/>
    </tripinfo>
    <tripinfo id="f_0_2.5" depart="68.00" departLane="E2D2_0" departPos="5.10" departSpeed="0.00" departDelay="1.00" arrival="212.00" arrivalLane="C2B2_0" arrivalPos="492.80" arrivalSpeed="15.87" duration="144.00" routeLength="1495.00" waitingTime="19.00" waitingCount="2" stopTime="0.00" timeLoss="51.91" rerouteNo="0" devices="tripinfo_f_0_2.5 emissions_f_0_2.5" vType="DEFAULT_VEHTYPE" speedFactor="1.18" vaporized="">
        <emissions CO_abs="7768.491079" CO2_abs="404960.559923" HC_abs="44.150414" PMx_abs="6.914160" NOx_abs="160.989892" fuel_abs="129165.163651" electricity_abs="0"/>
    </tripinfo>
    <tripinfo id="f_0_1.10" depart="73.00" departLane="C4C3_0" departPos="5.10" departSpeed="0.00" departDelay="0.00" arrival="212.00" arrivalLane="C2C1_0" arrivalPos="492.80" arrivalSpeed="12.72" duration="139.00" routeLength="1495.00" waitingTime="0.00" waitingCount="0" stopTime="0.00" timeLoss="30.12" rerouteNo="0" devices="tripinfo_f_0_1.10 emissions_f_0_1.10" vType="DEFAULT_VEHTYPE" speedFactor="0.99" vaporized="">
        <emissions CO_abs="5169.853301" CO2_abs="383309.080014" HC_abs="32.373851" PMx_abs="6.189567" NOx_abs="152.164733" fuel_abs="122258.235591" electricity_abs="0"/>
    </tripinfo>
    <tripinfo id="f_0_1.11" depart="77.00" departLane="C4C3_0" departPos="5.10" departSpeed="0.00" departDelay="0.00" arrival="213.00" arrivalLane="C2C1_0" arrivalPos="492.80" arrivalSpeed="13.89" duration="136.00" routeLength="1495.00" waitingTime="0.00" waitingCount="0" stopTime="0.00" timeLoss="30.32" rerouteNo="0" devices="tripinfo_f_0_1.11 emissions_f_0_1.11" vType="DEFAULT_VEHTYPE" speedFactor="1.02" vaporized="">
        <emissions CO_abs="5056.712114" CO2_abs="380799.469571" HC_abs="31.722284" PMx_abs="6.118897" NOx_abs="150.756137" fuel_abs="121457.776321" electricity_abs="0"/>
    </tripinfo>
    <tripinfo id="f_0_0.10" depart="42.00" departLane="A2B2_0" departPos="5.10" departSpeed="0.00" departDelay="2.00" arrival="214.00" arrivalLane="C2D2_0" arrivalPos="492.80" arrivalSpeed="15.59" duration="172.00" routeLength="1495.00" waitingTime="28.00" waitingCount="3" stopTime="0.00" timeLoss="75.96" rerouteNo="0" devices="tripinfo_f_0_0.10 emissions_f_0_0.10" vType="DEFAULT_VEHTYPE" speedFactor="1.12" vaporized="">
        <emissions CO_abs="10864.854567" CO2_abs="468609.685725" HC_abs="60.000792" PMx_abs="8.260854" NOx_abs="189.297190" fuel_abs="149467.376260" electricity_abs="0"/>
    </tripinfo>
    <tripinfo id="f_0_1.12" depart="80.00" departLane="C4C3_0" departPos="5.10" departSpeed="0.00" departDelay="0.00" arrival="215.00" arrivalLane="C2C1_0" arrivalPos="492.80" arrivalSpeed="15.40" duration="135.00" routeLength="1495.00" waitingTime="0.00" waitingCount="0" stopTime="0.00" timeLoss="43.24" rerouteNo="0" devices="tripinfo_f_0_1.12 emissions_f_0_1.12" vType="DEFAULT_VEHTYPE" speedFactor="1.18" vaporized="">
        <emissions CO_abs="5530.564884" CO2_abs="409475.301353" HC_abs="34.634215" PMx_abs="6.924924" NOx_abs="164.606821" fuel_abs="130603.703624" electricity_abs="0"/>
    </tripinfo>
    <tripinfo id="f_0_1.13" depart="83.00" departLane="C4C3_0" departPos="5.10" departSpeed="0.00" departDelay="0.00" arrival="217.00" arrivalLane="C2C1_0" arrivalPos="492.80" arrivalSpeed="12.62" duration="134.00" routeLength="1495.00" waitingTime="0.00" waitingCount="0" stopTime="0.00" timeLoss="21.12" rerouteNo="0" devices="tripinfo_f_0_1.13 emissions_f_0_1.13" vType="DEFAULT_VEHTYPE" speedFactor="0.96" vaporized="">
        <emissions CO_abs="4645.559689" CO2_abs="367512.069885" HC_abs="29.555289" PMx_abs="5.818268" NOx_abs="145.069736" fuel_abs="117219.641048" electricity_abs="0"/>
    </tripinfo>
    <tripinfo id="f_0_1.14" depart="86.00" departLane="C4C3_0" departPos="5.10" departSpeed="0.00" departDelay="1.00" arrival="219.00" arrivalLane="C2C1_0" arrivalPos="492.80" arrivalSpeed="14.29" duration="133.00" routeLength="1495.00" waitingTime="0.00" waitingCount="0" stopTime="0.00" timeLoss="33.58" rerouteNo="0" devices="tripinfo_f_0_1.14 emissions_f_0_1.14" vType="DEFAULT_VEHTYPE" speedFactor="1.09" vaporized="">
        <emissions CO_abs="5176.304003" CO2_abs="392900.829681" HC_abs="32.530663" PMx_abs="6.558303" NOx_abs="157.247811" fuel_abs="125317.232158" electricity_abs="0"/>
    </tripinfo>
    <tripinfo id="f_0_1.15" depart="89.00" departLane="C4C3_0" departPos="5.10" departSpeed="0.00" departDelay="2.00" arrival="220.00" arrivalLane="C2C1_0" arrivalPos="492.80" arrivalSpeed="14.19" duration="131.00" routeLength="1495.00" waitingTime="0.00" waitingCount="0" stopTime="0.00" timeLoss="31.82" rerouteNo="0" devices="tripinfo_f_0_1.15 emissions_f_0_1.15" vType="DEFAULT_VEHTYPE" speedFactor="1.09" vaporized="">
        <emissions CO_abs="5043.264194" CO2_abs="386142.665769" HC_abs="31.629194" PMx_abs="6.430971" NOx_abs="154.126532" fuel_abs="123161.677381" electricity_abs="0"/>
    </tripinfo>
    <tripinfo id="f_0_3.5" depart="95.00" departLane="C0C1_0" departPos="5.10" departSpeed="0.00" departDelay="6.00" arrival="228.00" arrivalLane="C2C3_0" arrivalPos="492.80" arrivalSpeed="12.02" duration="133.00" routeLength="1495.00" waitingTime="0.00" waitingCount="0" stopTime="0.00" timeLoss="10.01" rerouteNo="0" devices="tripinfo_f_0_3.5 emissions_f_0_3.5" vType="DEFAULT_VEHTYPE" speedFactor="0.88" vaporized="">
        <emissions CO_abs="3030.018476" CO2_abs="300228.546390" HC_abs="20.491069" PMx_abs="3.716732" NOx_abs="110.916828" fuel_abs="95760.025240" electricity_abs="0"/>
    </tripinfo>
    <tripinfo id="f_0_1.16" depart="92.00" departLane="C4C3_0" departPos="5.10" departSpeed="0.00" departDelay="2.00" arrival="229.00" arrivalLane="C2C1_0" arrivalPos="492.80" arrivalSpeed="10.65" duration="137.00" routeLength="1495.00" waitingTime="0.00" waitingCount="0" stopTime="0.00" timeLoss="10.04" rerouteNo="0" devices="tripinfo_f_0_1.16 emissions_f_0_1.16" vType="DEFAULT_VEHTYPE" speedFactor="0.85" vaporized="">
        <emissions CO_abs="3017.495720" CO2_abs="291810.830541" HC_abs="20.312934" PMx_abs="3.495059" NOx_abs="107.344007" fuel_abs="93075.302883" electricity_abs="0"/>
    </tripinfo>
    <tripinfo id="f_0_3.6" depart="98.00" departLane="C0C1_0" departPos="5.10" departSpeed="0.00" departDelay="3.00" arrival="230.00" arrivalLane="C2C3_0" arrivalPos="492.80" arrivalSpeed="13.82" duration="132.00" routeLength="1495.00" waitingTime="5.00" waitingCount="1" stopTime="0.00" timeLoss="25.55" rerouteNo="0" devices="tripinfo_f_0_3.6 emissions_f_0_3.6" vType="DEFAULT_VEHTYPE" speedFactor="1.02" vaporized="">
        <emissions CO_abs="4790.612022" CO2_abs="355966.818652" HC_abs="29.482548" PMx_abs="5.420038" NOx_abs="137.950249" fuel_abs="113537.677039" electricity_abs="0"/>
    </tripinfo>
    <tripinfo id="f_0_1.17" depart="96.00" departLane="C4C3_0" departPos="5.10" departSpeed="0.00" departDelay="0.00" arrival="231.00" arrivalLane="C2C1_0" arrivalPos="492.80" arrivalSpeed="13.93" duration="135.00" routeLength="1495.00" waitingTime="0.00" waitingCount="0" stopTime="0.00" timeLoss="26.79" rerouteNo="0" devices="tripinfo_f_0_1.17 emissions_f_0_1.17" vType="DEFAULT_VEHTYPE" speedFactor="1.00" vaporized="">
        <emissions CO_abs="4084.262810" CO2_abs="342980.825266" HC_abs="26.359823" PMx_abs="5.021115" NOx_abs="132.372740" fuel_abs="109395.622935" electricity_abs="0"/>
    </tripinfo>
    <tripinfo id="f_0_2.6" depart="79.00" departLane="E2D2_0" departPos="5.10" departSpeed="0.00" departDelay="0.00" arrival="232.00" arrivalLane="C2B2_0" arrivalPos="492.80" arrivalSpeed="12.54" duration="153.00" routeLength="1495.00" waitingTime="25.00" waitingCount="2" stopTime="0.00" timeLoss="41.87" rerouteNo="0" devices="tripinfo_f_0_2.6 emissions_f_0_2.6" vType="DEFAULT_VEHTYPE" speedFactor="0.97" vaporized="">
        <emissions CO_abs="7970.646597" CO2_abs="398067.250255" HC_abs="45.053180" PMx_abs="6.338116" NOx_abs="155.592163" fuel_abs="126967.265567" electricity_abs="0"/>
    </tripinfo>
    <tripinfo id="f_0_0.11" depart="45.00" departLane="A2B2_0" departPos="5.10" departSpeed="0.00" departDelay="4.00" arrival="234.00" arrivalLane="C2D2_0" arrivalPos="492.80" arrivalSpeed="11.61" duration="189.00" routeLength="1495.00" waitingTime="34.00" waitingCount="4" stopTime="0.00" timeLoss="72.43" rerouteNo="0" devices="tripinfo_f_0_0.11 emissions_f_0_0.11" vType="DEFAULT_VEHTYPE" speedFactor="0.93" vaporized="">
        <emissions CO_abs="12050.551319" CO2_abs="473687.900308" HC_abs="65.617379" PMx_abs="8.152276" NOx_abs="191.237244" fuel_abs="151088.007312" electricity_abs="0"/>
    </tripinfo>
    <tripinfo id="f_0_0.12" depart="48.00" departLane="A2B2_0" departPos="5.10" departSpeed="0.00" departDelay="4.00" arrival="236.00" arrivalLane="C2D2_0" arrivalPos="492.80" arrivalSpeed="12.23" duration="188.00" routeLength="1495.00" waitingTime="27.00" waitingCount="3" stopTime="0.00" timeLoss="72.36" rerouteNo="0" devices="tripinfo_f_0_0.12 emissions_f_0_0.12" vType="DEFAULT_VEHTYPE" speedFactor="0.94" vaporized="">
        <emissions CO_abs="11680.021566" CO2_abs="459200.166673" HC_abs="63.473845" PMx_abs="7.897954" NOx_abs="185.171514" fuel_abs="146466.989543" electricity_abs="0"/>
    </tripinfo>
    <tripinfo id="f_0_0.13" depart="51.00" departLane="A2B2_0" departPos="5.10" departSpeed="0.00" departDelay="6.00" arrival="237.00" arrivalLane="C2D2_0" arrivalPos="492.80" arrivalSpeed="14.69" duration="186.00" routeLength="1495.00" waitingTime="28.00" waitingCount="4" stopTime="0.00" timeLoss="92.93" rerouteNo="0" devices="tripinfo_f_0_0.13 emissions_f_0_0.13" vType="DEFAULT_VEHTYPE" speedFactor="1.16" vaporized="">
        <emissions CO_abs="12199.416362" CO2_abs="485233.052761" HC_abs="66.677795" PMx_abs="9.057881" NOx_abs="200.712069" fuel_abs="154769.552276" electricity_abs="0"/>
    </tripinfo>
    <tripinfo id="f_0_2.7" depart="92.00" departLane="E2D2_0" departPos="5.10" departSpeed="0.00" departDelay="0.00" arrival="239.00" arrivalLane="C2B2_0" arrivalPos="492.80" arrivalSpeed="11.81" duration="147.00" routeLength="1495.00" waitingTime="6.00" waitingCount="1" stopTime="0.00" timeLoss="20.80" rerouteNo="0" devices="tripinfo_f_0_2.7 emissions_f_0_2.7" vType="DEFAULT_VEHTYPE" speedFactor="0.85" vaporized="">
        <emissions CO_abs="5175.993575" CO2_abs="348067.462147" HC_abs="31.406939" PMx_abs="4.926870" NOx_abs="133.275580" fuel_abs="111018.903639" electricity_abs="0"/>
    </tripinfo>
    <tripinfo id="f_0_0.14" depart="59.00" departLane="A2B2_0" departPos="5.10" departSpeed="0.00" departDelay="0.00" arrival="240.00" arrivalLane="C2D2_0" arrivalPos="492.80" arrivalSpeed="11.49" duration="181.00" routeLength="1495.00" waitingTime="27.00" waitingCount="3" stopTime="0.00" timeLoss="62.95" rerouteNo="0" devices="tripinfo_f_0_0.14 emissions_f_0_0.14" vType="DEFAULT_VEHTYPE" speedFactor="0.92" vaporized="">