<?xml version="1.0" encoding="UTF-8"?>

<!-- generated on 2024-08-22 12:40:17 by Eclipse SUMO sumo Version 1.17.0
<configuration xmlns:xsi="http://www.w3.org/2001/XMLSchema-instance" xsi:noNamespaceSchemaLocation="http://sumo.dlr.de/xsd/sumoConfiguration.xsd">

    <input>
        <net-file value="single_static.net.xml"/>
        <route-files value="single_2.rou.xml"/>
    </input>

    <output>
        <tripinfo-output value="emissions_test\z_static_2_emissions_tripinfo_single.xml"/>
    </output>

    <processing>
        <time-to-teleport value="-1"/>
    </processing>

    <emissions>
        <device.emissions.probability value="1.0"/>
    </emissions>

    <traci_server>
        <remote-port value="57274"/>
    </traci_server>

</configuration>
-->

<tripinfos xmlns:xsi="http://www.w3.org/2001/XMLSchema-instance" xsi:noNamespaceSchemaLocation="http://sumo.dlr.de/xsd/tripinfo_file.xsd">
    <tripinfo id="f_0_0.0" depart="2.00" departLane="A2B2_0" departPos="5.10" departSpeed="0.00" departDelay="0.00" arrival="111.00" arrivalLane="C2D2_0" arrivalPos="492.80" arrivalSpeed="14.64" duration="109.00" routeLength="1495.00" waitingTime="0.00" waitingCount="0" stopTime="0.00" timeLoss="7.04" rerouteNo="0" devices="tripinfo_f_0_0.0 emissions_f_0_0.0" vType="DEFAULT_VEHTYPE" speedFactor="1.06" vaporized="">
        <emissions CO_abs="2341.410337" CO2_abs="287595.272316" HC_abs="16.610488" PMx_abs="3.949089" NOx_abs="106.362156" fuel_abs="91729.807552" electricity_abs="0"/>
    </tripinfo>
    <tripinfo id="f_0_1.0" depart="27.00" departLane="C4C3_0" departPos="5.10" departSpeed="0.00" departDelay="0.00" arrival="138.00" arrivalLane="C2C1_0" arrivalPos="492.80" arrivalSpeed="14.49" duration="111.00" routeLength="1495.00" waitingTime="0.00" waitingCount="0" stopTime="0.00" timeLoss="7.96" rerouteNo="0" devices="tripinfo_f_0_1.0 emissions_f_0_1.0" vType="DEFAULT_VEHTYPE" speedFactor="1.05" vaporized="">
        <emissions CO_abs="2130.498461" CO2_abs="285612.607004" HC_abs="15.469589" PMx_abs="3.562215" NOx_abs="102.918721" fuel_abs="91097.717668" electricity_abs="0"/>
    </tripinfo>
    <tripinfo id="f_0_1.1" depart="30.00" departLane="C4C3_0" departPos="5.10" departSpeed="0.00" departDelay="1.00" arrival="154.00" arrivalLane="C2C1_0" arrivalPos="492.80" arrivalSpeed="11.79" duration="124.00" routeLength="1495.00" waitingTime="0.00" waitingCount="0" stopTime="0.00" timeLoss="9.03" rerouteNo="0" devices="tripinfo_f_0_1.1 emissions_f_0_1.1" vType="DEFAULT_VEHTYPE" speedFactor="0.94" vaporized="">
        <emissions CO_abs="2786.738233" CO2_abs="292559.223711" HC_abs="19.081490" PMx_abs="3.864862" NOx_abs="108.978084" fuel_abs="93313.477616" electricity_abs="0"/>
    </tripinfo>
    <tripinfo id="f_0_1.2" depart="42.00" departLane="C4C3_0" departPos="5.10" departSpeed="0.00" departDelay="0.00" arrival="156.00" arrivalLane="C2C1_0" arrivalPos="492.80" arrivalSpeed="13.44" duration="114.00" routeLength="1495.00" waitingTime="0.00" waitingCount="0" stopTime="0.00" timeLoss="8.54" rerouteNo="0" devices="tripinfo_f_0_1.2 emissions_f_0_1.2" vType="DEFAULT_VEHTYPE" speedFactor="1.03" vaporized="">
        <emissions CO_abs="2563.263671" CO2_abs="286478.171242" HC_abs="17.658913" PMx_abs="3.979288" NOx_abs="106.896239" fuel_abs="91373.572015" electricity_abs="0"/>
    </tripinfo>
    <tripinfo id="f_0_1.3" depart="45.00" departLane="C4C3_0" departPos="5.10" departSpeed="0.00" departDelay="0.00" arrival="157.00" arrivalLane="C2C1_0" arrivalPos="492.80" arrivalSpeed="15.08" duration="112.00" routeLength="1495.00" waitingTime="0.00" waitingCount="0" stopTime="0.00" timeLoss="16.11" rerouteNo="0" devices="tripinfo_f_0_1.3 emissions_f_0_1.3" vType="DEFAULT_VEHTYPE" speedFactor="1.12" vaporized="">
        <emissions CO_abs="3209.224700" CO2_abs="325801.911904" HC_abs="21.636553" PMx_abs="4.914825" NOx_abs="124.252275" fuel_abs="103915.805617" electricity_abs="0"/>
    </tripinfo>
    <tripinfo id="f_0_2.0" depart="45.00" departLane="E2D2_0" departPos="5.10" departSpeed="0.00" departDelay="0.00" arrival="176.00" arrivalLane="C2B2_0" arrivalPos="492.80" arrivalSpeed="12.51" duration="131.00" routeLength="1495.00" waitingTime="9.00" waitingCount="1" stopTime="0.00" timeLoss="22.00" rerouteNo="0" devices="tripinfo_f_0_2.0 emissions_f_0_2.0" vType="DEFAULT_VEHTYPE" speedFactor="0.99" vaporized="">
        <emissions CO_abs="4504.923253" CO2_abs="321941.797636" HC_abs="27.432889" PMx_abs="4.723943" NOx_abs="122.766480" fuel_abs="102685.576223" electricity_abs="0"/>
    </tripinfo>
    <tripinfo id="f_0_0.1" depart="5.00" departLane="A2B2_0" departPos="5.10" departSpeed="0.00" departDelay="0.00" arrival="178.00" arrivalLane="C2D2_0" arrivalPos="492.80" arrivalSpeed="12.46" duration="173.00" routeLength="1495.00" waitingTime="43.00" waitingCount="1" stopTime="0.00" timeLoss="57.48" rerouteNo="0" devices="tripinfo_f_0_0.1 emissions_f_0_0.1" vType="DEFAULT_VEHTYPE" speedFactor="0.94" vaporized="">
        <emissions CO_abs="10490.181815" CO2_abs="430645.456532" HC_abs="57.349081" PMx_abs="7.115517" NOx_abs="170.823654" fuel_abs="137359.253550" electricity_abs="0"/>
    </tripinfo>
    <tripinfo id="f_0_0.2" depart="10.00" departLane="A2B2_0" departPos="5.10" departSpeed="0.00" departDelay="0.00" arrival="179.00" arrivalLane="C2D2_0" arrivalPos="492.80" arrivalSpeed="14.01" duration="169.00" routeLength="1495.00" waitingTime="41.00" waitingCount="1" stopTime="0.00" timeLoss="62.28" rerouteNo="0" devices="tripinfo_f_0_0.2 emissions_f_0_0.2" vType="DEFAULT_VEHTYPE" speedFactor="1.01" vaporized="">
        <emissions CO_abs="11329.810921" CO2_abs="469514.355027" HC_abs="62.273507" PMx_abs="8.321109" NOx_abs="190.230135" fuel_abs="149756.196122" electricity_abs="0"/>
    </tripinfo>
    <tripinfo id="f_0_2.1" depart="50.00" departLane="E2D2_0" departPos="5.10" departSpeed="0.00" departDelay="0.00" arrival="180.00" arrivalLane="C2B2_0" arrivalPos="492.80" arrivalSpeed="12.11" duration="130.00" routeLength="1495.00" waitingTime="0.00" waitingCount="0" stopTime="0.00" timeLoss="13.85" rerouteNo="0" devices="tripinfo_f_0_2.1 emissions_f_0_2.1" vType="DEFAULT_VEHTYPE" speedFactor="0.93" vaporized="">
        <emissions CO_abs="3166.082277" CO2_abs="311633.925877" HC_abs="21.087069" PMx_abs="3.979881" NOx_abs="115.276636" fuel_abs="99397.743682" electricity_abs="0"/>
    </tripinfo>
    <tripinfo id="f_0_0.3" depart="16.00" departLane="A2B2_0" departPos="5.10" departSpeed="0.00" departDelay="0.00" arrival="181.00" arrivalLane="C2D2_0" arrivalPos="492.80" arrivalSpeed="13.78" duration="165.00" routeLength="1495.00" waitingTime="41.00" waitingCount="1" stopTime="0.00" timeLoss="65.03" rerouteNo="0" devices="tripinfo_f_0_0.3 emissions_f_0_0.3" vType="DEFAULT_VEHTYPE" speedFactor="1.08" vaporized="">
        <emissions CO_abs="11567.832216" CO2_abs="473207.822556" HC_abs="63.231958" PMx_abs="8.737817" NOx_abs="193.454571" fuel_abs="150933.948485" electricity_abs="0"/>
    </tripinfo>
    <tripinfo id="f_0_2.2" depart="65.00" departLane="E2D2_0" departPos="5.10" departSpeed="0.00" departDelay="0.00" arrival="182.00" arrivalLane="C2B2_0" arrivalPos="492.80" arrivalSpeed="12.96" duration="117.00" routeLength="1495.00" waitingTime="0.00" waitingCount="0" stopTime="0.00" timeLoss="10.14" rerouteNo="0" devices="tripinfo_f_0_2.2 emissions_f_0_2.2" vType="DEFAULT_VEHTYPE" speedFactor="1.01" vaporized="">
        <emissions CO_abs="2401.722800" CO2_abs="276703.728501" HC_abs="16.520663" PMx_abs="3.580825" NOx_abs="101.451581" fuel_abs="88256.201148" electricity_abs="0"/>
    </tripinfo>
    <tripinfo id="f_0_0.4" depart="20.00" departLane="A2B2_0" departPos="5.10" departSpeed="0.00" departDelay="0.00" arrival="183.00" arrivalLane="C2D2_0" arrivalPos="492.80" arrivalSpeed="13.38" duration="163.00" routeLength="1495.00" waitingTime="39.00" waitingCount="1" stopTime="0.00" timeLoss="57.82" rerouteNo="0" devices="tripinfo_f_0_0.4 emissions_f_0_0.4" vType="DEFAULT_VEHTYPE" speedFactor="1.03" vaporized="">
        <emissions CO_abs="10527.574336" CO2_abs="450136.781237" HC_abs="57.599492" PMx_abs="7.667370" NOx_abs="178.767466" fuel_abs="143575.688549" electricity_abs="0"/>
    </tripinfo>
    <tripinfo id="f_0_2.3" depart="68.00" departLane="E2D2_0" departPos="5.10" departSpeed="0.00" departDelay="1.00" arrival="187.00" arrivalLane="C2B2_0" arrivalPos="492.80" arrivalSpeed="13.39" duration="119.00" routeLength="1495.00" waitingTime="0.00" waitingCount="0" stopTime="0.00" timeLoss="7.81" rerouteNo="0" devices="tripinfo_f_0_2.3 emissions_f_0_2.3" vType="DEFAULT_VEHTYPE" speedFactor="0.97" vaporized="">
        <emissions CO_abs="2337.183603" CO2_abs="289808.555204" HC_abs="16.509228" PMx_abs="3.527689" NOx_abs="104.653198" fuel_abs="92436.232935" electricity_abs="0"/>
    </tripinfo>
    <tripinfo id="f_0_0.5" depart="25.00" departLane="A2B2_0" departPos="5.10" departSpeed="0.00" departDelay="0.00" arrival="191.00" arrivalLane="C2D2_0" arrivalPos="492.80" arrivalSpeed="10.64" duration="166.00" routeLength="1495.00" waitingTime="21.00" waitingCount="1" stopTime="0.00" timeLoss="36.37" rerouteNo="0" devices="tripinfo_f_0_0.5 emissions_f_0_0.5" vType="DEFAULT_VEHTYPE" speedFactor="0.83" vaporized="">
        <emissions CO_abs="7577.941591" CO2_abs="377522.379844" HC_abs="43.103800" PMx_abs="5.586524" NOx_abs="146.719079" fuel_abs="120414.703240" electricity_abs="0"/>
    </tripinfo>
    <tripinfo id="f_0_0.6" depart="29.00" departLane="A2B2_0" departPos="5.10" departSpeed="0.00" departDelay="0.00" arrival="193.00" arrivalLane="C2D2_0" arrivalPos="492.80" arrivalSpeed="11.32" duration="164.00" routeLength="1495.00" waitingTime="21.00" waitingCount="1" stopTime="0.00" timeLoss="42.24" rerouteNo="0" devices="tripinfo_f_0_0.6 emissions_f_0_0.6" vType="DEFAULT_VEHTYPE" speedFactor="0.89" vaporized="">
        <emissions CO_abs="8213.110733" CO2_abs="409058.058343" HC_abs="46.791855" PMx_abs="6.583495" NOx_abs="162.392143" fuel_abs="130472.752112" electricity_abs="0"/>
    </tripinfo>
    <tripinfo id="f_0_0.7" depart="34.00" departLane="A2B2_0" departPos="5.10" departSpeed="0.00" departDelay="0.00" arrival="195.00" arrivalLane="C2D2_0" arrivalPos="492.80" arrivalSpeed="11.53" duration="161.00" routeLength="1495.00" waitingTime="18.00" waitingCount="1" stopTime="0.00" timeLoss="34.87" rerouteNo="0" devices="tripinfo_f_0_0.7 emissions_f_0_0.7" vType="DEFAULT_VEHTYPE" speedFactor="0.86" vaporized="">
        <emissions CO_abs="7348.702297" CO2_abs="386250.229870" HC_abs="42.278272" PMx_abs="5.927389" NOx_abs="151.322096" fuel_abs="123198.060622" electricity_abs="0"/>
    </tripinfo>
    <tripinfo id="f_0_0.8" depart="41.00" departLane="A2B2_0" departPos="5.10" departSpeed="0.00" departDelay="0.00" arrival="197.00" arrivalLane="C2D2_0" arrivalPos="492.80" arrivalSpeed="14.56" duration="156.00" routeLength="1495.00" waitingTime="21.00" waitingCount="2" stopTime="0.00" timeLoss="56.38" rerouteNo="0" devices="tripinfo_f_0_0.8 emissions_f_0_0.8" vType="DEFAULT_VEHTYPE" speedFactor="1.09" vaporized="">
        <emissions CO_abs="9012.628249" CO2_abs="442543.921026" HC_abs="50.877446" PMx_abs="7.608764" NOx_abs="177.579393" fuel_abs="141152.856870" electricity_abs="0"/>
    </tripinfo>
    <tripinfo id="f_0_0.9" depart="44.00" departLane="A2B2_0" departPos="5.10" departSpeed="0.00" departDelay="0.00" arrival="198.00" arrivalLane="C2D2_0" arrivalPos="492.80" arrivalSpeed="13.26" duration="154.00" routeLength="1495.00" waitingTime="21.00" waitingCount="2" stopTime="0.00" timeLoss="50.96" rerouteNo="0" devices="tripinfo_f_0_0.9 emissions_f_0_0.9" vType="DEFAULT_VEHTYPE" speedFactor="1.05" vaporized="">
        <emissions CO_abs="8691.668805" CO2_abs="433692.908491" HC_abs="49.248232" PMx_abs="7.470787" NOx_abs="174.437221" fuel_abs="138329.656945" electricity_abs="0"/>
    </tripinfo>
    <tripinfo id="f_0_0.10" depart="59.00" departLane="A2B2_0" departPos="5.10" departSpeed="0.00" departDelay="0.00" arrival="200.00" arrivalLane="C2D2_0" arrivalPos="492.80" arrivalSpeed="15.84" duration="141.00" routeLength="1495.00" waitingTime="14.00" waitingCount="1" stopTime="0.00" timeLoss="47.30" rerouteNo="0" devices="tripinfo_f_0_0.10 emissions_f_0_0.10" vType="DEFAULT_VEHTYPE" speedFactor="1.16" vaporized="">
        <emissions CO_abs="7361.647192" CO2_abs="426060.086336" HC_abs="43.079791" PMx_abs="7.269197" NOx_abs="170.094193" fuel_abs="135894.495563" electricity_abs="0"/>
    </tripinfo>
    <tripinfo id="f_0_0.11" depart="71.00" departLane="A2B2_0" departPos="5.10" departSpeed="0.00" departDelay="0.00" arrival="202.00" arrivalLane="C2D2_0" arrivalPos="492.80" arrivalSpeed="11.69" duration="131.00" routeLength="1495.00" waitingTime="0.00" waitingCount="0" stopTime="0.00" timeLoss="9.87" rerouteNo="0" devices="tripinfo_f_0_0.11 emissions_f_0_0.11" vType="DEFAULT_VEHTYPE" speedFactor="0.89" vaporized="">
        <emissions CO_abs="2914.760579" CO2_abs="299378.998100" HC_abs="19.893046" PMx_abs="3.681951" NOx_abs="110.138722" fuel_abs="95489.037074" electricity_abs="0"/>
    </tripinfo>
    <tripinfo id="f_0_2.4" depart="97.00" departLane="E2D2_0" departPos="5.10" departSpeed="0.00" departDelay="0.00" arrival="210.00" arrivalLane="C2B2_0" arrivalPos="492.80" arrivalSpeed="14.29" duration="113.00" routeLength="1495.00" waitingTime="0.00" waitingCount="0" stopTime="0.00" timeLoss="8.18" rerouteNo="0" devices="tripinfo_f_0_2.4 emissions_f_0_2.4" vType="DEFAULT_VEHTYPE" speedFactor="1.03" vaporized="">
        <emissions CO_abs="2363.912804" CO2_abs="289508.292381" HC_abs="16.434783" PMx_abs="3.719635" NOx_abs="105.168446" fuel_abs="92340.247367" electricity_abs="0"/>
    </tripinfo>
    <tripinfo id="f_0_0.12" depart="74.00" departLane="A2B2_0" departPos="5.10" departSpeed="0.00" departDelay="2.00" arrival="215.00" arrivalLane="C2D2_0" arrivalPos="492.80" arrivalSpeed="10.39" duration="141.00" routeLength="1495.00" waitingTime="0.00" waitingCount="0" stopTime="0.00" timeLoss="9.97" rerouteNo="0" devices="tripinfo_f_0_0.12 emissions_f_0_0.12" vType="DEFAULT_VEHTYPE" speedFactor="0.83" vaporized="">
        <emissions CO_abs="3380.555692" CO2_abs="306200.807862" HC_abs="22.291488" PMx_abs="3.739600" NOx_abs="113.425628" fuel_abs="97665.125287" electricity_abs="0"/>
    </tripinfo>
    <tripinfo id="f_0_0.13" depart="81.00" departLane="A2B2_0" departPos="5.10" departSpeed="0.00" departDelay="0.00" arrival="216.00" arrivalLane="C2D2_0" arrivalPos="492.80" arrivalSpeed="13.37" duration="135.00" routeLength="1495.00" waitingTime="0.00" waitingCount="0" stopTime="0.00" timeLoss="39.83" rerouteNo="0" devices="tripinfo_f_0_0.13 emissions_f_0_0.13" vType="DEFAULT_VEHTYPE" speedFactor="1.13" vaporized="">
        <emissions CO_abs="4180.239717" CO2_abs="337540.690090" HC_abs="26.750892" PMx_abs="5.126973" NOx_abs="131.530501" fuel_abs="107660.351768" electricity_abs="0"/>
    </tripinfo>
    <tripinfo id="f_0_0.14" depart="95.00" departLane="A2B2_0" departPos="5.10" departSpeed="0.00" departDelay="0.00" arrival="218.00" arrivalLane="C2D2_0" arrivalPos="492.80" arrivalSpeed="12.61" duration="123.00" routeLength="1495.00" waitingTime="0.00" waitingCount="0" stopTime="0.00" timeLoss="12.13" rerouteNo="0" devices="tripinfo_f_0_0.14 emissions_f_0_0.14" vType="DEFAULT_VEHTYPE" speedFactor="0.97" vaporized="">
        <emissions CO_abs="2929.104326" CO2_abs="309169.083575" HC_abs="19.980317" PMx_abs="4.103925" NOx_abs="115.023206" fuel_abs="98611.250154" electricity_abs="0"/>
    </tripinfo>
    <tripinfo id="f_0_0.15" depart="98.00" departLane="A2B2_0" departPos="5.10" departSpeed="0.00" departDelay="2.00" arrival="220.00" arrivalLane="C2D2_0" arrivalPos="492.80" arrivalSpeed="14.35" duration="122.00" routeLength="1495.00" waitingTime="0.00" waitingCount="0" stopTime="0.00" timeLoss="23.65" rerouteNo="0" devices="tripinfo_f_0_0.15 emissions_f_0_0.15" vType="DEFAULT_VEHTYPE" speedFactor="1.10" vaporized="">
        <emissions CO_abs="3525.974717" CO2_abs="328287.867178" HC_abs="23.155862" PMx_abs="4.912520" NOx_abs="126.139158" fuel_abs="104708.889013" electricity_abs="0"/>
    </tripinfo>
    <tripinfo id="f_0_3.0" depart="80.00" departLane="C0C1_0" departPos="5.10" departSpeed="0.00" departDelay="0.00" arrival="223.00" arrivalLane="C2C3_0" arrivalPos="492.80" arrivalSpeed="12.75" duration="143.00" routeLength="1495.00" waitingTime="16.00" waitingCount="1" stopTime="0.00" timeLoss="28.66" rerouteNo="0" devices="tripinfo_f_0_3.0 emissions_f_0_3.0" vType="DEFAULT_VEHTYPE" speedFactor="0.95" vaporized="">
        <emissions CO_abs="5838.474747" CO2_abs="364885.790760" HC_abs="34.581586" PMx_abs="5.275451" NOx_abs="139.085974" fuel_abs="116383.419663" electricity_abs="0"/>
    </tripinfo>
    <tripinfo id="f_0_3.1" depart="85.00" departLane="C0C1_0" departPos="5.10" departSpeed="0.00" departDelay="0.00" arrival="224.00" arrivalLane="C2C3_0" arrivalPos="492.80" arrivalSpeed="14.84" duration="139.00" routeLength="1495.00" waitingTime="15.00" waitingCount="1" stopTime="0.00" timeLoss="47.40" rerouteNo="0" devices="tripinfo_f_0_3.1 emissions_f_0_3.1" vType="DEFAULT_VEHTYPE" speedFactor="1.18" vaporized="">
        <emissions CO_abs="6799.178412" CO2_abs="391369.045291" HC_abs="39.630374" PMx_abs="6.541786" NOx_abs="155.478211" fuel_abs="124829.748812" electricity_abs="0"/>
    </tripinfo>
    <tripinfo id="f_0_1.4" depart="51.00" departLane="C4C3_0" departPos="5.10" departSpeed="0.00" departDelay="0.00" arrival="226.00" arrivalLane="C2C1_0" arrivalPos="492.80" arrivalSpeed="11.02" duration="175.00" routeLength="1495.00" waitingTime="38.00" waitingCount="1" stopTime="0.00" timeLoss="52.11" rerouteNo="0" devices="tripinfo_f_0_1.4 emissions_f_0_1.4" vType="DEFAULT_VEHTYPE" speedFactor="0.88" vaporized="">
        <emissions CO_abs="10092.679562" CO2_abs="419827.575153" HC_abs="55.496369" PMx_abs="6.855072" NOx_abs="166.906760" fuel_abs="133908.739219" electricity_abs="0"/>
    </tripinfo>
    <tripinfo id="f_0_3.2" depart="88.00" departLane="C0C1_0" departPos="5.10" departSpeed="0.00" departDelay="2.00" arrival="226.00" arrivalLane="C2C3_0" arrivalPos="492.80" arrivalSpeed="14.74" duration="138.00" routeLength="1495.00" waitingTime="13.00" waitingCount="1" stopTime="0.00" timeLoss="44.19" rerouteNo="0" devices="tripinfo_f_0_3.2 emissions_f_0_3.2" vType="DEFAULT_VEHTYPE" speedFactor="1.15" vaporized="">
        <emissions CO_abs="7027.554505" CO2_abs="397067.780635" HC_abs="40.923318" PMx_abs="7.007724" NOx_abs="160.512555" fuel_abs="126647.050048" electricity_abs="0"/>
    </tripinfo>
    <tripinfo id="f_0_3.3" depart="91.00" departLane="C0C1_0" departPos="5.10" departSpeed="0.00" departDelay="4.00" arrival="227.00" arrivalLane="C2C3_0" arrivalPos="492.80" arrivalSpeed="16.01" duration="136.00" routeLength="1495.00" waitingTime="13.00" waitingCount="1" stopTime="0.00" timeLoss="44.04" rerouteNo="0" devices="tripinfo_f_0_3.3 emissions_f_0_3.3" vType="DEFAULT_VEHTYPE" speedFactor="1.17" vaporized="">
        <emissions CO_abs="7189.332306" CO2_abs="415119.263342" HC_abs="41.899613" PMx_abs="7.247615" NOx_abs="166.741555" fuel_abs="132404.646969" electricity_abs="0"/>
    </tripinfo>
    <tripinfo id="f_0_1.5" depart="56.00" departLane="C4C3_0" departPos="5.10" departSpeed="0.00" departDelay="0.00" arrival="228.00" arrivalLane="C2C1_0" arrivalPos="492.80" arrivalSpeed="12.36" duration="172.00" routeLength="1495.00" waitingTime="38.00" waitingCount="1" stopTime="0.00" timeLoss="57.00" rerouteNo="0" devices="tripinfo_f_0_1.5 emissions_f_0_1.5" vType="DEFAULT_VEHTYPE" speedFactor="0.94" vaporized="">
        <emissions CO_abs="10353.923483" CO2_abs="444443.335862" HC_abs="57.153763" PMx_abs="7.337366" NOx_abs="176.862043" fuel_abs="141759.924150" electricity_abs="0"/>
    </tripinfo>
    <tripinfo id="f_0_1.6" depart="59.00" departLane="C4C3_0" departPos="5.10" departSpeed="0.00" departDelay="1.00" arrival="230.00" arrivalLane="C2C1_0" arrivalPos="492.80" arrivalSpeed="11.83" duration="171.00" routeLength="1495.00" waitingTime="36.00" waitingCount="1" stopTime="0.00" timeLoss="55.22" rerouteNo="0" devices="tripinfo_f_0_1.6 emissions_f_0_1.6" vType="DEFAULT_VEHTYPE" speedFactor="0.94" vaporized="">
        <emissions CO_abs="10372.410086" CO2_abs="446749.747001" HC_abs="57.406025" PMx_abs="7.572455" NOx_abs="179.089638" fuel_abs="142495.332700" electricity_abs="0"/>
    </tripinfo>
    <tripinfo id="f_0_3.4" depart="94.00" departLane="C0C1_0" departPos="5.10" departSpeed="0.00" departDelay="5.00" arrival="230.00" arrivalLane="C2C3_0" arrivalPos="492.80" arrivalSpeed="13.53" duration="136.00" routeLength="1495.00" waitingTime="10.00" waitingCount="1" stopTime="0.00" timeLoss="26.88" rerouteNo="0" devices="tripinfo_f_0_3.4 emissions_f_0_3.4" vType="DEFAULT_VEHTYPE" speedFactor="0.99" vaporized="">
        <emissions CO_abs="5848.519982" CO2_abs="370426.435844" HC_abs="34.834455" PMx_abs="5.958441" NOx_abs="145.368073" fuel_abs="118149.888015" electricity_abs="0"/>
    </tripinfo>
    <tripinfo id="f_0_1.7" depart="62.00" departLane="C4C3_0" departPos="5.10" departSpeed="0.00" departDelay="2.00" arrival="231.00" arrivalLane="C2C1_0" arrivalPos="492.80" arrivalSpeed="13.33" duration="169.00" routeLength="1495.00" waitingTime="35.00" waitingCount="2" stopTime="0.00" timeLoss="63.13" rerouteNo="0" devices="tripinfo_f_0_1.7 emissions_f_0_1.7" vType="DEFAULT_VEHTYPE" speedFactor="1.02" vaporized="">
        <emissions CO_abs="11492.003018" CO2_abs="487982.150104" HC_abs="63.139982" PMx_abs="8.724073" NOx_abs="198.442906" fuel_abs="155646.342930" electricity_abs="0"/>
    </tripinfo>
    <tripinfo id="f_0_3.5" depart="96.00" departLane="C0C1_0" departPos="5.10" departSpeed="0.00" departDelay="1.00" arrival="231.00" arrivalLane="C2C3_0" arrivalPos="492.80" arrivalSpeed="15.50" duration="135.00" routeLength="1495.00" waitingTime="10.00" waitingCount="1" stopTime="0.00" timeLoss="43.43" rerouteNo="0" devices="tripinfo_f_0_3.5 emissions_f_0_3.5" vType="DEFAULT_VEHTYPE" speedFactor="1.18" vaporized="">
        <emissions CO_abs="6643.050553" CO2_abs="402665.045310" HC_abs="39.272990" PMx_abs="6.829126" NOx_abs="160.712781" fuel_abs="128432.343188" electricity_abs="0"/>
    </tripinfo>
    <tripinfo id="f_0_1.8" depart="73.00" departLane="C4C3_0" departPos="5.10" departSpeed="0.00" departDelay="0.00" arrival="235.00" arrivalLane="C2C1_0" arrivalPos="492.80" arrivalSpeed="11.97" duration="162.00" routeLength="1495.00" waitingTime="20.00" waitingCount="1" stopTime="0.00" timeLoss="38.11" rerouteNo="0" devices="tripinfo_f_0_1.8 emissions_f_0_1.8" vType="DEFAULT_VEHTYPE" speedFactor="0.87" vaporized="">
        <emissions CO_abs="7615.158936" CO2_abs="389287.206957" HC_abs="43.367827" PMx_abs="5.843606" NOx_abs="151.057347" fuel_abs="124167.048885" electricity_abs="0"/>
    </tripinfo>
    <tripinfo id="f_0_1.9" depart="80.00" departLane="C4C3_0" departPos="5.10" departSpeed="0.00" departDelay="0.00" arrival="237.00" arrivalLane="C2C1_0" arrivalPos="492.80" arrivalSpeed="11.46" duration="157.00" routeLength="1495.00" waitingTime="19.00" waitingCount="1" stopTime="0.00" timeLoss="39.02" rerouteNo="0" devices="tripinfo_f_0_1.9 emissions_f_0_1.9" vType="DEFAULT_VEHTYPE" speedFactor="0.92" vaporized="">
        <emissions CO_abs="7423.075255" CO2_abs="389938.240043" HC_abs="42.492310" PMx_abs="5.974830" NOx_abs="151.935773" fuel_abs="124374.425970" electricity_abs="0"/>
    </tripinfo>
    <tripinfo id="f_0_1.10" depart="85.00" departLane="C4C3_0" departPos="5.10" departSpeed="0.00" departDelay="0.00" arrival="238.00" arrivalLane="C2C1_0" arrivalPos="492.80" arrivalSpeed="12.42" duration="153.00" routeLength="1495.00" waitingTime="18.00" waitingCount="1" stopTime="0.00" timeLoss="37.40" rerouteNo="0" devices="tripinfo_f_0_1.10 emissions_f_0_1.10" vType="DEFAULT_VEHTYPE" speedFactor="0.93" vaporized="">
        <emissions CO_abs="7202.376893" CO2_abs="388731.363886" HC_abs="41.519825" PMx_abs="6.064227" NOx_abs="152.188116" fuel_abs="123989.235146" electricity_abs="0"/>
    </tripinfo>
    <tripinfo id="f_0_1.11" depart="88.00" departLane="C4C3_0" departPos="5.10" departSpeed="0.00" departDelay="1.00" arrival="240.00" arrivalLane="C2C1_0" arrivalPos="492.80" arrivalSpeed="12.91" duration="152.00" routeLength="1495.00" waitingTime="17.00" waitingCount="1" stopTime="0.00" timeLoss="44.59" rerouteNo="0" devices="tripinfo_f_0_1.11 emissions_f_0_1.11" vType="DEFAULT_VEHTYPE" speedFactor="1.01" vaporized="">
        <emissions CO_abs="7979.457784" CO2_abs="422540.495212" HC_abs="45.844481" PMx_abs="7.128044" NOx_abs="169.099027" fuel_abs="134772.406409" electricity_abs="0"/>
    </tripinfo>
    <tripinfo id="f_0_1.12" depart="91.00" departLane="C4C3_0" departPos="5.10" departSpeed="0.00" departDelay="1.00" arrival="242.00" arrivalLane="C2C1_0" arrivalPos="492.80" arrivalSpeed="13.57" duration="151.00" routeLength="1495.00" waitingTime="17.00" waitingCount="1" stopTime="0.00" timeLoss="44.77" rerouteNo="0" devices="tripinfo_f_0_1.12 emissions_f_0_1.12" vType="DEFAULT_VEHTYPE" speedFactor="1.02" vaporized="">
        <emissions CO_abs="7878.744367" CO2_abs="404191.645592" HC_abs="44.883913" PMx_abs="6.940589" NOx_abs="162.381433" fuel_abs="128919.912433" electricity_abs="0"/>
    </tripinfo>
    <tripinfo id="f_0_1.13" depart="96.00" departLane="C4C3_0" departPos="5.10" departSpeed="0.00" departDelay="0.00" arrival="244.00" arrivalLane="C2C1_0" arrivalPos="492.80" arrivalSpeed="12.34" duration="148.00" routeLength="1495.00" waitingTime="11.00" waitingCount="1" stopTime="0.00" timeLoss="28.00" rerouteNo="0" devices="tripinfo_f_0_1.13 emissions_f_0_1.13" vType="DEFAULT_VEHTYPE" speedFactor="0.90" vaporized="">
        <emissions CO_abs="6015.945071" CO2_abs="367506.151158" HC_abs="35.479907" PMx_abs="5.414841" NOx_abs="141.508668" fuel_abs="117219.155256" electricity_abs="0"/>
    </tripinfo>
    <tripinfo id="f_1_2.0" depart="153.00" departLane="E2D2_0" departPos="5.10" departSpeed="0.00" departDelay="0.00" arrival="261.00" arrivalLane="C2B2_0" arrivalPos="492.80" arrivalSpeed="14.84" duration="108.00" routeLength="1495.00" waitingTime="0.00" waitingCount="0" stopTime="0.00" timeLoss="8.54" rerouteNo="0" devices="tripinfo_f_1_2.0 emissions_f_1_2.0" vType="DEFAULT_VEHTYPE" speedFactor="1.09" vaporized="">
        <emissions CO_abs="2387.952550" CO2_abs="299124.619278" HC_abs="16.955592" PMx_abs="4.028942" NOx_abs="109.149744" fuel_abs="95407.239292" electricity_abs="0"/>
    </tripinfo>
    <tripinfo id="f_1_0.0" depart="155.00" departLane="A2B2_0" departPos="5.10" departSpeed="0.00" departDelay="0.00" arrival="267.00" arrivalLane="C2D2_0" arrivalPos="492.80" arrivalSpeed="13.14" duration="112.00" routeLength="1495.00" waitingTime="0.00" waitingCount="0" stopTime="0.00" timeLoss="7.70" rerouteNo="0" devices="tripinfo_f_1_0.0 emissions_f_1_0.0" vType="DEFAULT_VEHTYPE" speedFactor="1.04" vaporized="">
        <emissions CO_abs="2364.037782" CO2_abs="290542.768180" HC_abs="16.616101" PMx_abs="3.807400" NOx_abs="106.096050" fuel_abs="92670.112184" electricity_abs="0"/>
    </tripinfo>
    <tripinfo id="f_1_0.1" depart="162.00" departLane="A2B2_0" departPos="5.10" departSpeed="0.00" departDelay="0.00" arrival="269.00" arrivalLane="C2D2_0" arrivalPos="492.80" arrivalSpeed="13.83" duration="107.00" routeLength="1495.00" waitingTime="0.00" waitingCount="0" stopTime="0.00" timeLoss="7.66" rerouteNo="0" devices="tripinfo_f_1_0.1 emissions_f_1_0.1" vType="DEFAULT_VEHTYPE" speedFactor="1.09" vaporized="">
        <emissions CO_abs="1998.303976" CO2_abs="276529.323385" HC_abs="14.383658" PMx_abs="3.432387" NOx_abs="98.385930" fuel_abs="88200.529525" electricity_abs="0"/>
    </tripinfo>
    <tripinfo id="f_1_2.1" depart="163.00" departLane="E2D2_0" departPos="5.10" departSpeed="0.00" departDelay="0.00" arrival="292.00" arrivalLane="C2B2_0" arrivalPos="492.80" arrivalSpeed="12.23" duration="129.00" routeLength="1495.00" waitingTime="0.00" waitingCount="0" stopTime="0.00" timeLoss="9.06" rerouteNo="0" devices="tripinfo_f_1_2.1 emissions_f_1_2.1" vType="DEFAULT_VEHTYPE" speedFactor="0.90" vaporized="">
        <emissions CO_abs="2802.791539" CO2_abs="298052.449045" HC_abs="19.222488" PMx_abs="3.659139" NOx_abs="109.371473" fuel_abs="95065.869066" electricity_abs="0"/>
    </tripinfo>
    <tripinfo id="f_1_2.2" depart="166.00" departLane="E2D2_0" departPos="5.10" departSpeed="0.00" departDelay="2.00" arrival="301.00" arrivalLane="C2B2_0" arrivalPos="492.80" arrivalSpeed="11.62" duration="135.00" routeLength="1495.00" waitingTime="0.00" waitingCount="0" stopTime="0.00" timeLoss="8.99" rerouteNo="0" devices="tripinfo_f_1_2.2 emissions_f_1_2.2" vType="DEFAULT_VEHTYPE" speedFactor="0.85" vaporized="">
        <emissions CO_abs="2936.707280" CO2_abs="296962.852122" HC_abs="19.925393" PMx_abs="3.492354" NOx_abs="108.412394" fuel_abs="94718.595837" electricity_abs="0"/>
    </tripinfo>
    <tripinfo id="f_1_0.2" depart="165.00" departLane="A2B2_0" departPos="5.10" departSpeed="0.00" departDelay="1.00" arrival="302.00" arrivalLane="C2D2_0" arrivalPos="492.80" arrivalSpeed="11.36" duration="137.00" routeLength="1495.00" waitingTime="0.00" waitingCount="0" stopTime="0.00" timeLoss="9.56" rerouteNo="0" devices="tripinfo_f_1_0.2 emissions_f_1_0.2" vType="DEFAULT_VEHTYPE" speedFactor="0.85" vaporized="">
        <emissions CO_abs="3324.266662" CO2_abs="311448.906789" HC_abs="22.157611" PMx_abs="3.912274" NOx_abs="115.823998" fuel_abs="99338.867512" electricity_abs="0"/>
    </tripinfo>
    <tripinfo id="f_1_2.3" depart="169.00" departLane="E2D2_0" departPos="5.10" departSpeed="0.00" departDelay="1.00" arrival="303.00" arrivalLane="C2B2_0" arrivalPos="492.80" arrivalSpeed="14.03" duration="134.00" routeLength="1495.00" waitingTime="4.00" waitingCount="1" stopTime="0.00" timeLoss="27.68" rerouteNo="0" devices="tripinfo_f_1_2.3 emissions_f_1_2.3" vType="DEFAULT_VEHTYPE" speedFactor="1.02" vaporized="">