<?xml version="1.0" encoding="UTF-8"?>

<!-- generated on 2024-08-22 12:40:15 by Eclipse SUMO sumo Version 1.17.0
<configuration xmlns:xsi="http://www.w3.org/2001/XMLSchema-instance" xsi:noNamespaceSchemaLocation="http://sumo.dlr.de/xsd/sumoConfiguration.xsd">

    <input>
        <net-file value="single_static.net.xml"/>
        <route-files value="single_1.rou.xml"/>
    </input>

    <output>
        <tripinfo-output value="emissions_test\z_static_1_emissions_tripinfo_single.xml"/>
    </output>

    <processing>
        <time-to-teleport value="-1"/>
    </processing>

    <emissions>
        <device.emissions.probability value="1.0"/>
    </emissions>

    <traci_server>
        <remote-port value="57272"/>
    </traci_server>

</configuration>
-->

<tripinfos xmlns:xsi="http://www.w3.org/2001/XMLSchema-instance" xsi:noNamespaceSchemaLocation="http://sumo.dlr.de/xsd/tripinfo_file.xsd">
    <tripinfo id="f_0_0.0" depart="2.00" departLane="A2B2_0" departPos="5.10" departSpeed="0.00" departDelay="0.00" arrival="111.00" arrivalLane="C2D2_0" arrivalPos="492.80" arrivalSpeed="14.64" duration="109.00" routeLength="1495.00" waitingTime="0.00" waitingCount="0" stopTime="0.00" timeLoss="7.16" rerouteNo="0" devices="tripinfo_f_0_0.0 emissions_f_0_0.0" vType="DEFAULT_VEHTYPE" speedFactor="1.06" vaporized="">
        <emissions CO_abs="2387.752091" CO2_abs="287457.531715" HC_abs="16.881475" PMx_abs="3.999220" NOx_abs="106.704191" fuel_abs="91685.847872" electricity_abs="0"/>
    </tripinfo>
    <tripinfo id="f_0_1.0" depart="27.00" departLane="C4C3_0" departPos="5.10" departSpeed="0.00" departDelay="0.00" arrival="139.00" arrivalLane="C2C1_0" arrivalPos="492.80" arrivalSpeed="14.31" duration="112.00" routeLength="1495.00" waitingTime="0.00" waitingCount="0" stopTime="0.00" timeLoss="8.15" rerouteNo="0" devices="tripinfo_f_0_1.0 emissions_f_0_1.0" vType="DEFAULT_VEHTYPE" speedFactor="1.05" vaporized="">
        <emissions CO_abs="2395.092859" CO2_abs="291198.422446" HC_abs="16.844090" PMx_abs="3.836522" NOx_abs="106.353243" fuel_abs="92879.242763" electricity_abs="0"/>
    </tripinfo>
    <tripinfo id="f_0_2.0" depart="45.00" departLane="E2D2_0" departPos="5.10" departSpeed="0.00" departDelay="0.00" arrival="174.00" arrivalLane="C2B2_0" arrivalPos="492.80" arrivalSpeed="14.00" duration="129.00" routeLength="1495.00" waitingTime="12.00" waitingCount="1" stopTime="0.00" timeLoss="25.52" rerouteNo="0" devices="tripinfo_f_0_2.0 emissions_f_0_2.0" vType="DEFAULT_VEHTYPE" speedFactor="1.05" vaporized="">
        <emissions CO_abs="5141.661437" CO2_abs="351442.193245" HC_abs="30.621880" PMx_abs="5.238450" NOx_abs="133.506974" fuel_abs="112094.973707" electricity_abs="0"/>
    </tripinfo>
    <tripinfo id="f_0_2.1" depart="50.00" departLane="E2D2_0" departPos="5.10" departSpeed="0.00" departDelay="0.00" arrival="175.00" arrivalLane="C2B2_0" arrivalPos="492.80" arrivalSpeed="14.59" duration="125.00" routeLength="1495.00" waitingTime="11.00" waitingCount="1" stopTime="0.00" timeLoss="29.10" rerouteNo="0" devices="tripinfo_f_0_2.1 emissions_f_0_2.1" vType="DEFAULT_VEHTYPE" speedFactor="1.12" vaporized="">
        <emissions CO_abs="5414.812803" CO2_abs="369406.066705" HC_abs="32.138533" PMx_abs="5.675692" NOx_abs="141.023537" fuel_abs="117824.474904" electricity_abs="0"/>
    </tripinfo>
    <tripinfo id="f_0_1.1" depart="42.00" departLane="C4C3_0" departPos="5.10" departSpeed="0.00" departDelay="0.00" arrival="177.00" arrivalLane="C2C1_0" arrivalPos="492.80" arrivalSpeed="11.41" duration="135.00" routeLength="1495.00" waitingTime="0.00" waitingCount="0" stopTime="0.00" timeLoss="9.34" rerouteNo="0" devices="tripinfo_f_0_1.1 emissions_f_0_1.1" vType="DEFAULT_VEHTYPE" speedFactor="0.86" vaporized="">
        <emissions CO_abs="3075.677236" CO2_abs="292400.924755" HC_abs="20.573174" PMx_abs="3.703511" NOx_abs="108.882355" fuel_abs="93263.313972" electricity_abs="0"/>
    </tripinfo>
    <tripinfo id="f_0_0.1" depart="5.00" departLane="A2B2_0" departPos="5.10" departSpeed="0.00" departDelay="0.00" arrival="178.00" arrivalLane="C2D2_0" arrivalPos="492.80" arrivalSpeed="12.09" duration="173.00" routeLength="1495.00" waitingTime="45.00" waitingCount="1" stopTime="0.00" timeLoss="57.37" rerouteNo="0" devices="tripinfo_f_0_0.1 emissions_f_0_0.1" vType="DEFAULT_VEHTYPE" speedFactor="0.94" vaporized="">
        <emissions CO_abs="10446.869618" CO2_abs="425971.799738" HC_abs="56.690309" PMx_abs="6.870561" NOx_abs="167.421724" fuel_abs="135868.762294" electricity_abs="0"/>
    </tripinfo>
    <tripinfo id="f_0_0.2" depart="10.00" departLane="A2B2_0" departPos="5.10" departSpeed="0.00" departDelay="0.00" arrival="179.00" arrivalLane="C2D2_0" arrivalPos="492.80" arrivalSpeed="13.70" duration="169.00" routeLength="1495.00" waitingTime="44.00" waitingCount="1" stopTime="0.00" timeLoss="62.23" rerouteNo="0" devices="tripinfo_f_0_0.2 emissions_f_0_0.2" vType="DEFAULT_VEHTYPE" speedFactor="1.01" vaporized="">
        <emissions CO_abs="10945.365227" CO2_abs="448232.749024" HC_abs="59.768882" PMx_abs="7.676154" NOx_abs="179.385430" fuel_abs="142968.613581" electricity_abs="0"/>
    </tripinfo>
    <tripinfo id="f_0_0.3" depart="16.00" departLane="A2B2_0" departPos="5.10" departSpeed="0.00" departDelay="0.00" arrival="181.00" arrivalLane="C2D2_0" arrivalPos="492.80" arrivalSpeed="14.12" duration="165.00" routeLength="1495.00" waitingTime="44.00" waitingCount="1" stopTime="0.00" timeLoss="65.00" rerouteNo="0" devices="tripinfo_f_0_0.3 emissions_f_0_0.3" vType="DEFAULT_VEHTYPE" speedFactor="1.08" vaporized="">
        <emissions CO_abs="11294.435752" CO2_abs="459344.702590" HC_abs="61.724272" PMx_abs="8.385378" NOx_abs="187.339952" fuel_abs="146512.313915" electricity_abs="0"/>
    </tripinfo>
    <tripinfo id="f_0_0.4" depart="20.00" departLane="A2B2_0" departPos="5.10" departSpeed="0.00" departDelay="0.00" arrival="183.00" arrivalLane="C2D2_0" arrivalPos="492.80" arrivalSpeed="14.13" duration="163.00" routeLength="1495.00" waitingTime="41.00" waitingCount="1" stopTime="0.00" timeLoss="57.75" rerouteNo="0" devices="tripinfo_f_0_0.4 emissions_f_0_0.4" vType="DEFAULT_VEHTYPE" speedFactor="1.03" vaporized="">
        <emissions CO_abs="10701.666887" CO2_abs="462121.922099" HC_abs="58.785813" PMx_abs="8.021525" NOx_abs="185.295089" fuel_abs="147398.195840" electricity_abs="0"/>
    </tripinfo>
    <tripinfo id="f_0_0.5" depart="25.00" departLane="A2B2_0" departPos="5.10" departSpeed="0.00" departDelay="0.00" arrival="191.00" arrivalLane="C2D2_0" arrivalPos="492.80" arrivalSpeed="10.97" duration="166.00" routeLength="1495.00" waitingTime="19.00" waitingCount="1" stopTime="0.00" timeLoss="35.96" rerouteNo="0" devices="tripinfo_f_0_0.5 emissions_f_0_0.5" vType="DEFAULT_VEHTYPE" speedFactor="0.83" vaporized="">
        <emissions CO_abs="7495.512748" CO2_abs="375957.327724" HC_abs="42.656027" PMx_abs="5.541191" NOx_abs="145.900524" fuel_abs="119915.516190" electricity_abs="0"/>
    </tripinfo>
    <tripinfo id="f_0_2.2" depart="67.00" departLane="E2D2_0" departPos="5.10" departSpeed="0.00" departDelay="0.00" arrival="192.00" arrivalLane="C2B2_0" arrivalPos="492.80" arrivalSpeed="12.08" duration="125.00" routeLength="1495.00" waitingTime="0.00" waitingCount="0" stopTime="0.00" timeLoss="8.71" rerouteNo="0" devices="tripinfo_f_0_2.2 emissions_f_0_2.2" vType="DEFAULT_VEHTYPE" speedFactor="0.93" vaporized="">
        <emissions CO_abs="2578.935609" CO2_abs="292343.611488" HC_abs="17.946414" PMx_abs="3.544837" NOx_abs="106.288943" fuel_abs="93244.973337" electricity_abs="0"/>
    </tripinfo>
    <tripinfo id="f_0_0.6" depart="34.00" departLane="A2B2_0" departPos="5.10" departSpeed="0.00" departDelay="0.00" arrival="193.00" arrivalLane="C2D2_0" arrivalPos="492.80" arrivalSpeed="11.57" duration="159.00" routeLength="1495.00" waitingTime="18.00" waitingCount="1" stopTime="0.00" timeLoss="36.74" rerouteNo="0" devices="tripinfo_f_0_0.6 emissions_f_0_0.6" vType="DEFAULT_VEHTYPE" speedFactor="0.89" vaporized="">
        <emissions CO_abs="7431.388964" CO2_abs="379932.557284" HC_abs="42.486886" PMx_abs="6.041300" NOx_abs="150.121923" fuel_abs="121182.864596" electricity_abs="0"/>
    </tripinfo>
    <tripinfo id="f_0_0.7" depart="41.00" departLane="A2B2_0" departPos="5.10" departSpeed="0.00" departDelay="0.00" arrival="194.00" arrivalLane="C2D2_0" arrivalPos="492.80" arrivalSpeed="12.61" duration="153.00" routeLength="1495.00" waitingTime="13.00" waitingCount="2" stopTime="0.00" timeLoss="38.13" rerouteNo="0" devices="tripinfo_f_0_0.7 emissions_f_0_0.7" vType="DEFAULT_VEHTYPE" speedFactor="0.94" vaporized="">
        <emissions CO_abs="7597.862008" CO2_abs="415493.115878" HC_abs="44.092675" PMx_abs="6.880260" NOx_abs="166.031653" fuel_abs="132524.557488" electricity_abs="0"/>
    </tripinfo>
    <tripinfo id="f_0_0.8" depart="44.00" departLane="A2B2_0" departPos="5.10" departSpeed="0.00" departDelay="0.00" arrival="196.00" arrivalLane="C2D2_0" arrivalPos="492.80" arrivalSpeed="13.88" duration="152.00" routeLength="1495.00" waitingTime="10.00" waitingCount="2" stopTime="0.00" timeLoss="52.79" rerouteNo="0" devices="tripinfo_f_0_0.8 emissions_f_0_0.8" vType="DEFAULT_VEHTYPE" speedFactor="1.09" vaporized="">
        <emissions CO_abs="8288.410444" CO2_abs="444789.034435" HC_abs="47.909225" PMx_abs="7.846906" NOx_abs="181.060003" fuel_abs="141868.220925" electricity_abs="0"/>
    </tripinfo>
    <tripinfo id="f_0_2.3" depart="97.00" departLane="E2D2_0" departPos="5.10" departSpeed="0.00" departDelay="0.00" arrival="200.00" arrivalLane="C2B2_0" arrivalPos="492.80" arrivalSpeed="15.24" duration="103.00" routeLength="1495.00" waitingTime="0.00" waitingCount="0" stopTime="0.00" timeLoss="7.16" rerouteNo="0" devices="tripinfo_f_0_2.3 emissions_f_0_2.3" vType="DEFAULT_VEHTYPE" speedFactor="1.13" vaporized="">
        <emissions CO_abs="2017.469596" CO2_abs="282338.752440" HC_abs="14.648454" PMx_abs="3.684238" NOx_abs="101.633093" fuel_abs="90053.267815" electricity_abs="0"/>
    </tripinfo>
    <tripinfo id="f_0_0.9" depart="71.00" departLane="A2B2_0" departPos="5.10" departSpeed="0.00" departDelay="0.00" arrival="204.00" arrivalLane="C2D2_0" arrivalPos="492.80" arrivalSpeed="11.46" duration="133.00" routeLength="1495.00" waitingTime="0.00" waitingCount="0" stopTime="0.00" timeLoss="9.62" rerouteNo="0" devices="tripinfo_f_0_0.9 emissions_f_0_0.9" vType="DEFAULT_VEHTYPE" speedFactor="0.88" vaporized="">
        <emissions CO_abs="2751.956000" CO2_abs="288886.587837" HC_abs="18.802065" PMx_abs="3.386009" NOx_abs="105.127136" fuel_abs="92142.562098" electricity_abs="0"/>
    </tripinfo>
    <tripinfo id="f_0_0.10" depart="74.00" departLane="A2B2_0" departPos="5.10" departSpeed="0.00" departDelay="2.00" arrival="205.00" arrivalLane="C2D2_0" arrivalPos="492.80" arrivalSpeed="12.12" duration="131.00" routeLength="1495.00" waitingTime="0.00" waitingCount="0" stopTime="0.00" timeLoss="16.56" rerouteNo="0" devices="tripinfo_f_0_0.10 emissions_f_0_0.10" vType="DEFAULT_VEHTYPE" speedFactor="0.94" vaporized="">
        <emissions CO_abs="3827.657892" CO2_abs="333947.141820" HC_abs="25.000080" PMx_abs="4.883030" NOx_abs="128.675424" fuel_abs="106514.213471" electricity_abs="0"/>
    </tripinfo>
    <tripinfo id="f_0_0.11" depart="81.00" departLane="A2B2_0" departPos="5.10" departSpeed="0.00" departDelay="0.00" arrival="207.00" arrivalLane="C2D2_0" arrivalPos="492.80" arrivalSpeed="12.07" duration="126.00" routeLength="1495.00" waitingTime="0.00" waitingCount="0" stopTime="0.00" timeLoss="10.65" rerouteNo="0" devices="tripinfo_f_0_0.11 emissions_f_0_0.11" vType="DEFAULT_VEHTYPE" speedFactor="0.94" vaporized="">
        <emissions CO_abs="3175.669743" CO2_abs="312903.867009" HC_abs="21.333889" PMx_abs="4.324579" NOx_abs="118.088375" fuel_abs="99802.414704" electricity_abs="0"/>
    </tripinfo>
    <tripinfo id="f_0_1.2" depart="45.00" departLane="C4C3_0" departPos="5.10" departSpeed="0.00" departDelay="0.00" arrival="220.00" arrivalLane="C2C1_0" arrivalPos="492.80" arrivalSpeed="13.58" duration="175.00" routeLength="1495.00" waitingTime="43.00" waitingCount="1" stopTime="0.00" timeLoss="69.27" rerouteNo="0" devices="tripinfo_f_0_1.2 emissions_f_0_1.2" vType="DEFAULT_VEHTYPE" speedFactor="1.03" vaporized="">
        <emissions CO_abs="11533.346917" CO2_abs="467917.823202" HC_abs="63.257679" PMx_abs="8.291123" NOx_abs="190.173995" fuel_abs="149247.092408" electricity_abs="0"/>
    </tripinfo>
    <tripinfo id="f_0_3.0" depart="85.00" departLane="C0C1_0" departPos="5.10" departSpeed="0.00" departDelay="0.00" arrival="220.00" arrivalLane="C2C3_0" arrivalPos="492.80" arrivalSpeed="13.37" duration="135.00" routeLength="1495.00" waitingTime="14.00" waitingCount="1" stopTime="0.00" timeLoss="28.47" rerouteNo="0" devices="tripinfo_f_0_3.0 emissions_f_0_3.0" vType="DEFAULT_VEHTYPE" speedFactor="1.02" vaporized="">
        <emissions CO_abs="5790.462398" CO2_abs="363676.898849" HC_abs="33.981035" PMx_abs="5.485578" NOx_abs="139.228816" fuel_abs="115997.532430" electricity_abs="0"/>
    </tripinfo>
    <tripinfo id="f_0_1.3" depart="60.00" departLane="C4C3_0" departPos="5.10" departSpeed="0.00" departDelay="0.00" arrival="223.00" arrivalLane="C2C1_0" arrivalPos="492.80" arrivalSpeed="13.68" duration="163.00" routeLength="1495.00" waitingTime="40.00" waitingCount="1" stopTime="0.00" timeLoss="53.75" rerouteNo="0" devices="tripinfo_f_0_1.3 emissions_f_0_1.3" vType="DEFAULT_VEHTYPE" speedFactor="0.99" vaporized="">
        <emissions CO_abs="10245.995368" CO2_abs="437656.567068" HC_abs="56.596797" PMx_abs="7.598668" NOx_abs="176.092756" fuel_abs="139594.838448" electricity_abs="0"/>
    </tripinfo>
    <tripinfo id="f_0_3.1" depart="88.00" departLane="C0C1_0" departPos="5.10" departSpeed="0.00" departDelay="1.00" arrival="223.00" arrivalLane="C2C3_0" arrivalPos="492.80" arrivalSpeed="13.06" duration="135.00" routeLength="1495.00" waitingTime="11.00" waitingCount="1" stopTime="0.00" timeLoss="24.25" rerouteNo="0" devices="tripinfo_f_0_3.1 emissions_f_0_3.1" vType="DEFAULT_VEHTYPE" speedFactor="0.97" vaporized="">
        <emissions CO_abs="5036.146757" CO2_abs="339616.053882" HC_abs="30.020704" PMx_abs="4.883847" NOx_abs="128.694183" fuel_abs="108323.181425" electricity_abs="0"/>
    </tripinfo>
    <tripinfo id="f_0_1.4" depart="85.00" departLane="C4C3_0" departPos="5.10" departSpeed="0.00" departDelay="0.00" arrival="224.00" arrivalLane="C2C1_0" arrivalPos="492.80" arrivalSpeed="14.80" duration="139.00" routeLength="1495.00" waitingTime="26.00" waitingCount="1" stopTime="0.00" timeLoss="46.06" rerouteNo="0" devices="tripinfo_f_0_1.4 emissions_f_0_1.4" vType="DEFAULT_VEHTYPE" speedFactor="1.16" vaporized="">
        <emissions CO_abs="8387.205190" CO2_abs="416632.361440" HC_abs="47.154902" PMx_abs="7.139671" NOx_abs="164.587920" fuel_abs="132888.220281" electricity_abs="0"/>
    </tripinfo>
    <tripinfo id="f_0_1.5" depart="88.00" departLane="C4C3_0" departPos="5.10" departSpeed="0.00" departDelay="1.00" arrival="226.00" arrivalLane="C2C1_0" arrivalPos="492.80" arrivalSpeed="13.30" duration="138.00" routeLength="1495.00" waitingTime="17.00" waitingCount="1" stopTime="0.00" timeLoss="31.37" rerouteNo="0" devices="tripinfo_f_0_1.5 emissions_f_0_1.5" vType="DEFAULT_VEHTYPE" speedFactor="1.01" vaporized="">
        <emissions CO_abs="6575.175011" CO2_abs="372985.692339" HC_abs="38.092198" PMx_abs="6.060088" NOx_abs="146.389338" fuel_abs="118966.553910" electricity_abs="0"/>
    </tripinfo>
    <tripinfo id="f_0_3.2" depart="95.00" departLane="C0C1_0" departPos="5.10" departSpeed="0.00" departDelay="0.00" arrival="230.00" arrivalLane="C2C3_0" arrivalPos="492.80" arrivalSpeed="11.37" duration="135.00" routeLength="1495.00" waitingTime="0.00" waitingCount="0" stopTime="0.00" timeLoss="11.21" rerouteNo="0" devices="tripinfo_f_0_3.2 emissions_f_0_3.2" vType="DEFAULT_VEHTYPE" speedFactor="0.87" vaporized="">
        <emissions CO_abs="3202.544439" CO2_abs="313349.874964" HC_abs="21.592566" PMx_abs="3.841944" NOx_abs="115.705340" fuel_abs="99945.218034" electricity_abs="0"/>
    </tripinfo>
    <tripinfo id="f_0_1.6" depart="91.00" departLane="C4C3_0" departPos="5.10" departSpeed="0.00" departDelay="1.00" arrival="233.00" arrivalLane="C2C1_0" arrivalPos="492.80" arrivalSpeed="11.53" duration="142.00" routeLength="1495.00" waitingTime="4.00" waitingCount="1" stopTime="0.00" timeLoss="20.20" rerouteNo="0" devices="tripinfo_f_0_1.6 emissions_f_0_1.6" vType="DEFAULT_VEHTYPE" speedFactor="0.89" vaporized="">
        <emissions CO_abs="4372.259172" CO2_abs="327330.725105" HC_abs="27.098212" PMx_abs="4.390681" NOx_abs="123.086790" fuel_abs="104404.745391" electricity_abs="0"/>
    </tripinfo>
    <tripinfo id="f_0_1.7" depart="96.00" departLane="C4C3_0" departPos="5.10" departSpeed="0.00" departDelay="0.00" arrival="234.00" arrivalLane="C2C1_0" arrivalPos="492.80" arrivalSpeed="12.06" duration="138.00" routeLength="1495.00" waitingTime="3.00" waitingCount="1" stopTime="0.00" timeLoss="24.49" rerouteNo="0" devices="tripinfo_f_0_1.7 emissions_f_0_1.7" vType="DEFAULT_VEHTYPE" speedFactor="0.95" vaporized="">
        <emissions CO_abs="5039.265357" CO2_abs="348463.198636" HC_abs="30.837319" PMx_abs="5.558708" NOx_abs="137.527858" fuel_abs="111144.289791" electricity_abs="0"/>
    </tripinfo>
    <tripinfo id="f_1_2.0" depart="153.00" departLane="E2D2_0" departPos="5.10" departSpeed="0.00" departDelay="0.00" arrival="261.00" arrivalLane="C2B2_0" arrivalPos="492.80" arrivalSpeed="15.86" duration="108.00" routeLength="1495.00" waitingTime="1.00" waitingCount="1" stopTime="0.00" timeLoss="15.86" rerouteNo="0" devices="tripinfo_f_1_2.0 emissions_f_1_2.0" vType="DEFAULT_VEHTYPE" speedFactor="1.18" vaporized="">
        <emissions CO_abs="3827.866865" CO2_abs="337059.994707" HC_abs="24.026141" PMx_abs="5.103928" NOx_abs="126.617932" fuel_abs="107506.866057" electricity_abs="0"/>
    </tripinfo>
    <tripinfo id="f_0_0.12" depart="95.00" departLane="A2B2_0" departPos="5.10" departSpeed="0.00" departDelay="0.00" arrival="274.00" arrivalLane="C2D2_0" arrivalPos="492.80" arrivalSpeed="10.91" duration="179.00" routeLength="1495.00" waitingTime="33.00" waitingCount="1" stopTime="0.00" timeLoss="48.22" rerouteNo="0" devices="tripinfo_f_0_0.12 emissions_f_0_0.12" vType="DEFAULT_VEHTYPE" speedFactor="0.83" vaporized="">
        <emissions CO_abs="9429.546798" CO2_abs="405888.780831" HC_abs="52.152083" PMx_abs="6.125527" NOx_abs="158.347953" fuel_abs="129463.170513" electricity_abs="0"/>
    </tripinfo>
    <tripinfo id="f_0_0.13" depart="98.00" departLane="A2B2_0" departPos="5.10" departSpeed="0.00" departDelay="2.00" arrival="276.00" arrivalLane="C2D2_0" arrivalPos="492.80" arrivalSpeed="11.65" duration="178.00" routeLength="1495.00" waitingTime="32.00" waitingCount="1" stopTime="0.00" timeLoss="60.00" rerouteNo="0" devices="tripinfo_f_0_0.13 emissions_f_0_0.13" vType="DEFAULT_VEHTYPE" speedFactor="0.92" vaporized="">
        <emissions CO_abs="10072.143675" CO2_abs="438464.564450" HC_abs="55.967869" PMx_abs="7.259591" NOx_abs="175.866060" fuel_abs="139852.741677" electricity_abs="0"/>
    </tripinfo>
    <tripinfo id="f_1_0.0" depart="155.00" departLane="A2B2_0" departPos="5.10" departSpeed="0.00" departDelay="0.00" arrival="277.00" arrivalLane="C2D2_0" arrivalPos="492.80" arrivalSpeed="13.84" duration="122.00" routeLength="1495.00" waitingTime="1.00" waitingCount="1" stopTime="0.00" timeLoss="28.71" rerouteNo="0" devices="tripinfo_f_1_0.0 emissions_f_1_0.0" vType="DEFAULT_VEHTYPE" speedFactor="1.15" vaporized="">
        <emissions CO_abs="4442.293883" CO2_abs="362905.960603" HC_abs="27.982458" PMx_abs="5.539288" NOx_abs="139.189692" fuel_abs="115750.715995" electricity_abs="0"/>
    </tripinfo>
    <tripinfo id="f_1_2.1" depart="163.00" departLane="E2D2_0" departPos="5.10" departSpeed="0.00" departDelay="0.00" arrival="280.00" arrivalLane="C2B2_0" arrivalPos="492.80" arrivalSpeed="13.46" duration="117.00" routeLength="1495.00" waitingTime="0.00" waitingCount="0" stopTime="0.00" timeLoss="8.32" rerouteNo="0" devices="tripinfo_f_1_2.1 emissions_f_1_2.1" vType="DEFAULT_VEHTYPE" speedFactor="0.99" vaporized="">
        <emissions CO_abs="2469.751592" CO2_abs="295198.020066" HC_abs="17.237202" PMx_abs="3.749544" NOx_abs="107.598766" fuel_abs="94155.109650" electricity_abs="0"/>
    </tripinfo>
    <tripinfo id="f_1_2.2" depart="166.00" departLane="E2D2_0" departPos="5.10" departSpeed="0.00" departDelay="2.00" arrival="286.00" arrivalLane="C2B2_0" arrivalPos="492.80" arrivalSpeed="12.48" duration="120.00" routeLength="1495.00" waitingTime="0.00" waitingCount="0" stopTime="0.00" timeLoss="9.19" rerouteNo="0" devices="tripinfo_f_1_2.2 emissions_f_1_2.2" vType="DEFAULT_VEHTYPE" speedFactor="0.97" vaporized="">
        <emissions CO_abs="2561.270001" CO2_abs="296719.887475" HC_abs="17.657001" PMx_abs="3.681989" NOx_abs="107.634712" fuel_abs="94640.680838" electricity_abs="0"/>
    </tripinfo>
    <tripinfo id="f_1_2.3" depart="169.00" departLane="E2D2_0" departPos="5.10" departSpeed="0.00" departDelay="1.00" arrival="288.00" arrivalLane="C2B2_0" arrivalPos="492.80" arrivalSpeed="15.47" duration="119.00" routeLength="1495.00" waitingTime="0.00" waitingCount="0" stopTime="0.00" timeLoss="27.04" rerouteNo="0" devices="tripinfo_f_1_2.3 emissions_f_1_2.3" vType="DEFAULT_VEHTYPE" speedFactor="1.18" vaporized="">
        <emissions CO_abs="3360.414115" CO2_abs="329857.631546" HC_abs="22.558635" PMx_abs="4.900871" NOx_abs="126.288896" fuel_abs="105209.524267" electricity_abs="0"/>
    </tripinfo>
    <tripinfo id="f_1_2.4" depart="172.00" departLane="E2D2_0" departPos="5.10" departSpeed="0.00" departDelay="2.00" arrival="306.00" arrivalLane="C2B2_0" arrivalPos="492.80" arrivalSpeed="11.97" duration="134.00" routeLength="1495.00" waitingTime="1.00" waitingCount="1" stopTime="0.00" timeLoss="14.41" rerouteNo="0" devices="tripinfo_f_1_2.4 emissions_f_1_2.4" vType="DEFAULT_VEHTYPE" speedFactor="0.90" vaporized="">
        <emissions CO_abs="3835.542003" CO2_abs="330518.720809" HC_abs="24.728993" PMx_abs="4.449045" NOx_abs="124.205884" fuel_abs="105421.207630" electricity_abs="0"/>
    </tripinfo>
    <tripinfo id="f_1_2.5" depart="177.00" departLane="E2D2_0" departPos="5.10" departSpeed="0.00" departDelay="0.00" arrival="308.00" arrivalLane="C2B2_0" arrivalPos="492.80" arrivalSpeed="13.94" duration="131.00" routeLength="1495.00" waitingTime="1.00" waitingCount="1" stopTime="0.00" timeLoss="31.95" rerouteNo="0" devices="tripinfo_f_1_2.5 emissions_f_1_2.5" vType="DEFAULT_VEHTYPE" speedFactor="1.09" vaporized="">
        <emissions CO_abs="4326.856913" CO2_abs="355505.872065" HC_abs="27.543154" PMx_abs="5.311006" NOx_abs="136.900185" fuel_abs="113390.522479" electricity_abs="0"/>
    </tripinfo>
    <tripinfo id="f_1_1.0" depart="175.00" departLane="C4C3_0" departPos="5.10" departSpeed="0.00" departDelay="0.00" arrival="309.00" arrivalLane="C2C1_0" arrivalPos="492.80" arrivalSpeed="14.17" duration="134.00" routeLength="1495.00" waitingTime="16.00" waitingCount="1" stopTime="0.00" timeLoss="29.30" rerouteNo="0" devices="tripinfo_f_1_1.0 emissions_f_1_1.0" vType="DEFAULT_VEHTYPE" speedFactor="1.03" vaporized="">
        <emissions CO_abs="6124.204882" CO2_abs="366940.608065" HC_abs="35.907215" PMx_abs="5.900419" NOx_abs="143.414870" fuel_abs="117038.293555" electricity_abs="0"/>
    </tripinfo>
    <tripinfo id="f_1_2.6" depart="180.00" departLane="E2D2_0" departPos="5.10" departSpeed="0.00" departDelay="2.00" arrival="310.00" arrivalLane="C2B2_0" arrivalPos="492.80" arrivalSpeed="13.90" duration="130.00" routeLength="1495.00" waitingTime="1.00" waitingCount="1" stopTime="0.00" timeLoss="26.15" rerouteNo="0" devices="tripinfo_f_1_2.6 emissions_f_1_2.6" vType="DEFAULT_VEHTYPE" speedFactor="1.04" vaporized="">
        <emissions CO_abs="4427.473053" CO2_abs="363836.249115" HC_abs="28.152718" PMx_abs="5.482370" NOx_abs="140.298118" fuel_abs="116047.495640" electricity_abs="0"/>
    </tripinfo>
    <tripinfo id="f_1_3.0" depart="152.00" departLane="C0C1_0" departPos="5.10" departSpeed="0.00" departDelay="0.00" arrival="313.00" arrivalLane="C2C3_0" arrivalPos="492.80" arrivalSpeed="11.83" duration="161.00" routeLength="1495.00" waitingTime="32.00" waitingCount="1" stopTime="0.00" timeLoss="45.27" rerouteNo="0" devices="tripinfo_f_1_3.0 emissions_f_1_3.0" vType="DEFAULT_VEHTYPE" speedFactor="0.93" vaporized="">
        <emissions CO_abs="8658.457978" CO2_abs="403914.612688" HC_abs="48.392181" PMx_abs="6.403248" NOx_abs="158.223433" fuel_abs="128832.722919" electricity_abs="0"/>
    </tripinfo>
    <tripinfo id="f_1_3.1" depart="160.00" departLane="C0C1_0" departPos="5.10" departSpeed="0.00" departDelay="0.00" arrival="315.00" arrivalLane="C2C3_0" arrivalPos="492.80" arrivalSpeed="13.55" duration="155.00" routeLength="1495.00" waitingTime="32.00" waitingCount="1" stopTime="0.00" timeLoss="47.34" rerouteNo="0" devices="tripinfo_f_1_3.1 emissions_f_1_3.1" vType="DEFAULT_VEHTYPE" speedFactor="1.01" vaporized="">
        <emissions CO_abs="9016.572825" CO2_abs="414957.856831" HC_abs="50.139802" PMx_abs="7.058333" NOx_abs="165.363312" fuel_abs="132354.582436" electricity_abs="0"/>
    </tripinfo>
    <tripinfo id="f_1_1.1" depart="178.00" departLane="C4C3_0" departPos="5.10" departSpeed="0.00" departDelay="1.00" arrival="315.00" arrivalLane="C2C1_0" arrivalPos="492.80" arrivalSpeed="12.02" duration="137.00" routeLength="1495.00" waitingTime="10.00" waitingCount="1" stopTime="0.00" timeLoss="24.07" rerouteNo="0" devices="tripinfo_f_1_1.1 emissions_f_1_1.1" vType="DEFAULT_VEHTYPE" speedFactor="0.96" vaporized="">
        <emissions CO_abs="5144.733403" CO2_abs="350979.712418" HC_abs="31.146615" PMx_abs="5.179630" NOx_abs="134.603701" fuel_abs="111947.535943" electricity_abs="0"/>
    </tripinfo>
    <tripinfo id="f_1_3.2" depart="163.00" departLane="C0C1_0" departPos="5.10" departSpeed="0.00" departDelay="1.00" arrival="316.00" arrivalLane="C2C3_0" arrivalPos="492.80" arrivalSpeed="14.80" duration="153.00" routeLength="1495.00" waitingTime="31.00" waitingCount="1" stopTime="0.00" timeLoss="61.09" rerouteNo="0" devices="tripinfo_f_1_3.2 emissions_f_1_3.2" vType="DEFAULT_VEHTYPE" speedFactor="1.17" vaporized="">
        <emissions CO_abs="9798.187839" CO2_abs="444259.304841" HC_abs="54.554882" PMx_abs="8.041224" NOx_abs="180.644188" fuel_abs="141700.045860" electricity_abs="0"/>
    </tripinfo>
    <tripinfo id="f_1_1.2" depart="181.00" departLane="C4C3_0" departPos="5.10" departSpeed="0.00" departDelay="3.00" arrival="317.00" arrivalLane="C2C1_0" arrivalPos="492.80" arrivalSpeed="13.74" duration="136.00" routeLength="1495.00" waitingTime="8.00" waitingCount="1" stopTime="0.00" timeLoss="31.49" rerouteNo="0" devices="tripinfo_f_1_1.2 emissions_f_1_1.2" vType="DEFAULT_VEHTYPE" speedFactor="1.04" vaporized="">
        <emissions CO_abs="6393.747269" CO2_abs="389885.969865" HC_abs="37.990834" PMx_abs="6.773121" NOx_abs="157.232992" fuel_abs="124356.164935" electricity_abs="0"/>
    </tripinfo>
    <tripinfo id="f_1_3.3" depart="166.00" departLane="C0C1_0" departPos="5.10" departSpeed="0.00" departDelay="3.00" arrival="318.00" arrivalLane="C2C3_0" arrivalPos="492.80" arrivalSpeed="13.94" duration="152.00" routeLength="1495.00" waitingTime="28.00" waitingCount="1" stopTime="0.00" timeLoss="46.16" rerouteNo="0" devices="tripinfo_f_1_3.3 emissions_f_1_3.3" vType="DEFAULT_VEHTYPE" speedFactor="1.02" vaporized="">
        <emissions CO_abs="8429.886929" CO2_abs="410876.969783" HC_abs="47.098654" PMx_abs="6.605590" NOx_abs="160.758836" fuel_abs="131053.059825" electricity_abs="0"/>
    </tripinfo>
    <tripinfo id="f_1_3.4" depart="169.00" departLane="C0C1_0" departPos="5.10" departSpeed="0.00" departDelay="1.00" arrival="320.00" arrivalLane="C2C3_0" arrivalPos="492.80" arrivalSpeed="14.12" duration="151.00" routeLength="1495.00" waitingTime="27.00" waitingCount="1" stopTime="0.00" timeLoss="52.71" rerouteNo="0" devices="tripinfo_f_1_3.4 emissions_f_1_3.4" vType="DEFAULT_VEHTYPE" speedFactor="1.10" vaporized="">
        <emissions CO_abs="8875.954151" CO2_abs="426951.045793" HC_abs="50.030006" PMx_abs="7.395031" NOx_abs="171.143066" fuel_abs="136179.528737" electricity_abs="0"/>
    </tripinfo>
    <tripinfo id="f_1_3.5" depart="178.00" departLane="C0C1_0" departPos="5.10" departSpeed="0.00" departDelay="0.00" arrival="322.00" arrivalLane="C2C3_0" arrivalPos="492.80" arrivalSpeed="14.63" duration="144.00" routeLength="1495.00" waitingTime="24.00" waitingCount="1" stopTime="0.00" timeLoss="44.14" rerouteNo="0" devices="tripinfo_f_1_3.5 emissions_f_1_3.5" vType="DEFAULT_VEHTYPE" speedFactor="1.09" vaporized="">
        <emissions CO_abs="8261.309399" CO2_abs="423431.541500" HC_abs="46.650967" PMx_abs="7.184082" NOx_abs="167.842891" fuel_abs="135056.757894" electricity_abs="0"/>
    </tripinfo>
    <tripinfo id="f_1_3.6" depart="190.00" departLane="C0C1_0" departPos="5.10" departSpeed="0.00" departDelay="0.00" arrival="329.00" arrivalLane="C2C3_0" arrivalPos="492.80" arrivalSpeed="11.88" duration="139.00" routeLength="1495.00" waitingTime="1.00" waitingCount="1" stopTime="0.00" timeLoss="15.92" rerouteNo="0" devices="tripinfo_f_1_3.6 emissions_f_1_3.6" vType="DEFAULT_VEHTYPE" speedFactor="0.88" vaporized="">
        <emissions CO_abs="3921.868207" CO2_abs="323697.532319" HC_abs="25.106540" PMx_abs="4.209333" NOx_abs="121.120998" fuel_abs="103245.802790" electricity_abs="0"/>
    </tripinfo>
    <tripinfo id="f_1_2.7" depart="183.00" departLane="E2D2_0" departPos="5.10" departSpeed="0.00" departDelay="0.00" arrival="356.00" arrivalLane="C2B2_0" arrivalPos="492.80" arrivalSpeed="12.97" duration="173.00" routeLength="1495.00" waitingTime="44.00" waitingCount="1" stopTime="0.00" timeLoss="64.46" rerouteNo="0" devices="tripinfo_f_1_2.7 emissions_f_1_2.7" vType="DEFAULT_VEHTYPE" speedFactor="1.00" vaporized="">