<?xml version="1.0" encoding="UTF-8"?>

<!-- generated on 2024-08-22 12:40:21 by Eclipse SUMO sumo Version 1.17.0
<configuration xmlns:xsi="http://www.w3.org/2001/XMLSchema-instance" xsi:noNamespaceSchemaLocation="http://sumo.dlr.de/xsd/sumoConfiguration.xsd">

    <input>
        <net-file value="single_static.net.xml"/>
        <route-files value="single_4.rou.xml"/>
    </input>

    <output>
        <tripinfo-output value="emissions_test\z_static_4_emissions_tripinfo_single.xml"/>
    </output>

    <processing>
        <time-to-teleport value="-1"/>
    </processing>

    <emissions>
        <device.emissions.probability value="1.0"/>
    </emissions>

    <traci_server>
        <remote-port value="57278"/>
    </traci_server>

</configuration>
-->

<tripinfos xmlns:xsi="http://www.w3.org/2001/XMLSchema-instance" xsi:noNamespaceSchemaLocation="http://sumo.dlr.de/xsd/tripinfo_file.xsd">
    <tripinfo id="f_0_0.0" depart="2.00" departLane="A2B2_0" departPos="5.10" departSpeed="0.00" departDelay="0.00" arrival="111.00" arrivalLane="C2D2_0" arrivalPos="492.80" arrivalSpeed="14.64" duration="109.00" routeLength="1495.00" waitingTime="0.00" waitingCount="0" stopTime="0.00" timeLoss="7.08" rerouteNo="0" devices="tripinfo_f_0_0.0 emissions_f_0_0.0" vType="DEFAULT_VEHTYPE" speedFactor="1.06" vaporized="">
        <emissions CO_abs="2230.250483" CO2_abs="291492.890247" HC_abs="16.234528" PMx_abs="3.878030" NOx_abs="106.639805" fuel_abs="92973.054909" electricity_abs="0"/>
    </tripinfo>
    <tripinfo id="f_0_1.0" depart="24.00" departLane="C4C3_0" departPos="5.10" departSpeed="0.00" departDelay="0.00" arrival="136.00" arrivalLane="C2C1_0" arrivalPos="492.80" arrivalSpeed="13.30" duration="112.00" routeLength="1495.00" waitingTime="0.00" waitingCount="0" stopTime="0.00" timeLoss="8.18" rerouteNo="0" devices="tripinfo_f_0_1.0 emissions_f_0_1.0" vType="DEFAULT_VEHTYPE" speedFactor="1.05" vaporized="">
        <emissions CO_abs="2427.893462" CO2_abs="291530.778012" HC_abs="16.925821" PMx_abs="3.881280" NOx_abs="106.907811" fuel_abs="92985.217575" electricity_abs="0"/>
    </tripinfo>
    <tripinfo id="f_0_1.1" depart="27.00" departLane="C4C3_0" departPos="5.10" departSpeed="0.00" departDelay="1.00" arrival="151.00" arrivalLane="C2C1_0" arrivalPos="492.80" arrivalSpeed="12.07" duration="124.00" routeLength="1495.00" waitingTime="0.00" waitingCount="0" stopTime="0.00" timeLoss="8.95" rerouteNo="0" devices="tripinfo_f_0_1.1 emissions_f_0_1.1" vType="DEFAULT_VEHTYPE" speedFactor="0.94" vaporized="">
        <emissions CO_abs="2649.999216" CO2_abs="288709.267639" HC_abs="18.261434" PMx_abs="3.690289" NOx_abs="106.447109" fuel_abs="92085.605649" electricity_abs="0"/>
    </tripinfo>
    <tripinfo id="f_0_1.2" depart="30.00" departLane="C4C3_0" departPos="5.10" departSpeed="0.00" departDelay="3.00" arrival="166.00" arrivalLane="C2C1_0" arrivalPos="492.80" arrivalSpeed="10.73" duration="136.00" routeLength="1495.00" waitingTime="0.00" waitingCount="0" stopTime="0.00" timeLoss="9.70" rerouteNo="0" devices="tripinfo_f_0_1.2 emissions_f_0_1.2" vType="DEFAULT_VEHTYPE" speedFactor="0.86" vaporized="">
        <emissions CO_abs="3204.125926" CO2_abs="302162.109823" HC_abs="21.345414" PMx_abs="3.806500" NOx_abs="112.263839" fuel_abs="96376.763661" electricity_abs="0"/>
    </tripinfo>
    <tripinfo id="f_0_1.3" depart="33.00" departLane="C4C3_0" departPos="5.10" departSpeed="0.00" departDelay="4.00" arrival="167.00" arrivalLane="C2C1_0" arrivalPos="492.80" arrivalSpeed="13.78" duration="134.00" routeLength="1495.00" waitingTime="0.00" waitingCount="0" stopTime="0.00" timeLoss="28.97" rerouteNo="0" devices="tripinfo_f_0_1.3 emissions_f_0_1.3" vType="DEFAULT_VEHTYPE" speedFactor="1.03" vaporized="">
        <emissions CO_abs="4131.646218" CO2_abs="344307.276027" HC_abs="26.672588" PMx_abs="5.137600" NOx_abs="133.679559" fuel_abs="109818.614677" electricity_abs="0"/>
    </tripinfo>
    <tripinfo id="f_0_1.4" depart="36.00" departLane="C4C3_0" departPos="5.10" departSpeed="0.00" departDelay="5.00" arrival="169.00" arrivalLane="C2C1_0" arrivalPos="492.80" arrivalSpeed="14.19" duration="133.00" routeLength="1495.00" waitingTime="0.00" waitingCount="0" stopTime="0.00" timeLoss="29.68" rerouteNo="0" devices="tripinfo_f_0_1.4 emissions_f_0_1.4" vType="DEFAULT_VEHTYPE" speedFactor="1.05" vaporized="">
        <emissions CO_abs="4742.983937" CO2_abs="378601.643062" HC_abs="30.228337" PMx_abs="6.030538" NOx_abs="149.325030" fuel_abs="120756.671600" electricity_abs="0"/>
    </tripinfo>
    <tripinfo id="f_0_1.5" depart="42.00" departLane="C4C3_0" departPos="5.10" departSpeed="0.00" departDelay="0.00" arrival="171.00" arrivalLane="C2C1_0" arrivalPos="492.80" arrivalSpeed="13.75" duration="129.00" routeLength="1495.00" waitingTime="0.00" waitingCount="0" stopTime="0.00" timeLoss="22.51" rerouteNo="0" devices="tripinfo_f_0_1.5 emissions_f_0_1.5" vType="DEFAULT_VEHTYPE" speedFactor="1.02" vaporized="">
        <emissions CO_abs="4099.377926" CO2_abs="359554.536910" HC_abs="26.746577" PMx_abs="5.412998" NOx_abs="139.233510" fuel_abs="114681.627585" electricity_abs="0"/>
    </tripinfo>
    <tripinfo id="f_0_0.1" depart="5.00" departLane="A2B2_0" departPos="5.10" departSpeed="0.00" departDelay="0.00" arrival="178.00" arrivalLane="C2D2_0" arrivalPos="492.80" arrivalSpeed="11.78" duration="173.00" routeLength="1495.00" waitingTime="44.00" waitingCount="1" stopTime="0.00" timeLoss="57.70" rerouteNo="0" devices="tripinfo_f_0_0.1 emissions_f_0_0.1" vType="DEFAULT_VEHTYPE" speedFactor="0.94" vaporized="">
        <emissions CO_abs="10486.086662" CO2_abs="432653.999980" HC_abs="57.205813" PMx_abs="6.951735" NOx_abs="169.927944" fuel_abs="138000.100496" electricity_abs="0"/>
    </tripinfo>
    <tripinfo id="f_0_2.0" depart="40.00" departLane="E2D2_0" departPos="5.10" departSpeed="0.00" departDelay="0.00" arrival="178.00" arrivalLane="C2B2_0" arrivalPos="492.80" arrivalSpeed="12.07" duration="138.00" routeLength="1495.00" waitingTime="8.00" waitingCount="1" stopTime="0.00" timeLoss="22.54" rerouteNo="0" devices="tripinfo_f_0_2.0 emissions_f_0_2.0" vType="DEFAULT_VEHTYPE" speedFactor="0.94" vaporized="">
        <emissions CO_abs="4771.842651" CO2_abs="333956.277351" HC_abs="28.867383" PMx_abs="4.686347" NOx_abs="126.351617" fuel_abs="106517.976168" electricity_abs="0"/>
    </tripinfo>
    <tripinfo id="f_0_0.2" depart="8.00" departLane="A2B2_0" departPos="5.10" departSpeed="0.00" departDelay="1.00" arrival="179.00" arrivalLane="C2D2_0" arrivalPos="492.80" arrivalSpeed="13.70" duration="171.00" routeLength="1495.00" waitingTime="43.00" waitingCount="1" stopTime="0.00" timeLoss="64.41" rerouteNo="0" devices="tripinfo_f_0_0.2 emissions_f_0_0.2" vType="DEFAULT_VEHTYPE" speedFactor="1.01" vaporized="">
        <emissions CO_abs="11142.093714" CO2_abs="462262.915176" HC_abs="61.141217" PMx_abs="8.021882" NOx_abs="186.065838" fuel_abs="147443.469215" electricity_abs="0"/>
    </tripinfo>
    <tripinfo id="f_0_2.1" depart="43.00" departLane="E2D2_0" departPos="5.10" departSpeed="0.00" departDelay="1.00" arrival="180.00" arrivalLane="C2B2_0" arrivalPos="492.80" arrivalSpeed="13.61" duration="137.00" routeLength="1495.00" waitingTime="7.00" waitingCount="1" stopTime="0.00" timeLoss="29.68" rerouteNo="0" devices="tripinfo_f_0_2.1 emissions_f_0_2.1" vType="DEFAULT_VEHTYPE" speedFactor="1.01" vaporized="">
        <emissions CO_abs="5509.646532" CO2_abs="369989.968497" HC_abs="33.274884" PMx_abs="5.797503" NOx_abs="144.477636" fuel_abs="118010.621778" electricity_abs="0"/>
    </tripinfo>
    <tripinfo id="f_0_0.3" depart="11.00" departLane="A2B2_0" departPos="5.10" departSpeed="0.00" departDelay="1.00" arrival="181.00" arrivalLane="C2D2_0" arrivalPos="492.80" arrivalSpeed="14.89" duration="170.00" routeLength="1495.00" waitingTime="42.00" waitingCount="1" stopTime="0.00" timeLoss="70.17" rerouteNo="0" devices="tripinfo_f_0_0.3 emissions_f_0_0.3" vType="DEFAULT_VEHTYPE" speedFactor="1.08" vaporized="">
        <emissions CO_abs="11675.025939" CO2_abs="472721.623325" HC_abs="63.743564" PMx_abs="8.606693" NOx_abs="192.967476" fuel_abs="150779.074539" electricity_abs="0"/>
    </tripinfo>
    <tripinfo id="f_0_0.4" depart="16.00" departLane="A2B2_0" departPos="5.10" departSpeed="0.00" departDelay="0.00" arrival="183.00" arrivalLane="C2D2_0" arrivalPos="492.80" arrivalSpeed="13.03" duration="167.00" routeLength="1495.00" waitingTime="42.00" waitingCount="1" stopTime="0.00" timeLoss="61.93" rerouteNo="0" devices="tripinfo_f_0_0.4 emissions_f_0_0.4" vType="DEFAULT_VEHTYPE" speedFactor="1.03" vaporized="">
        <emissions CO_abs="10963.623880" CO2_abs="446409.725155" HC_abs="59.701722" PMx_abs="7.807433" NOx_abs="179.218631" fuel_abs="142386.993020" electricity_abs="0"/>
    </tripinfo>
    <tripinfo id="f_0_2.2" depart="46.00" departLane="E2D2_0" departPos="5.10" departSpeed="0.00" departDelay="2.00" arrival="184.00" arrivalLane="C2B2_0" arrivalPos="492.80" arrivalSpeed="11.08" duration="138.00" routeLength="1495.00" waitingTime="2.00" waitingCount="1" stopTime="0.00" timeLoss="16.80" rerouteNo="0" devices="tripinfo_f_0_2.2 emissions_f_0_2.2" vType="DEFAULT_VEHTYPE" speedFactor="0.89" vaporized="">
        <emissions CO_abs="3786.448987" CO2_abs="315515.011169" HC_abs="24.068637" PMx_abs="4.014993" NOx_abs="117.064099" fuel_abs="100636.010390" electricity_abs="0"/>
    </tripinfo>
    <tripinfo id="f_0_2.3" depart="49.00" departLane="E2D2_0" departPos="5.10" departSpeed="0.00" departDelay="4.00" arrival="186.00" arrivalLane="C2B2_0" arrivalPos="492.80" arrivalSpeed="12.16" duration="137.00" routeLength="1495.00" waitingTime="2.00" waitingCount="1" stopTime="0.00" timeLoss="19.15" rerouteNo="0" devices="tripinfo_f_0_2.3 emissions_f_0_2.3" vType="DEFAULT_VEHTYPE" speedFactor="0.92" vaporized="">
        <emissions CO_abs="4588.243419" CO2_abs="345810.189222" HC_abs="28.647573" PMx_abs="5.103542" NOx_abs="133.443328" fuel_abs="110298.340959" electricity_abs="0"/>
    </tripinfo>
    <tripinfo id="f_0_2.4" depart="52.00" departLane="E2D2_0" departPos="5.10" departSpeed="0.00" departDelay="2.00" arrival="188.00" arrivalLane="C2B2_0" arrivalPos="492.80" arrivalSpeed="15.14" duration="136.00" routeLength="1495.00" waitingTime="0.00" waitingCount="0" stopTime="0.00" timeLoss="39.99" rerouteNo="0" devices="tripinfo_f_0_2.4 emissions_f_0_2.4" vType="DEFAULT_VEHTYPE" speedFactor="1.13" vaporized="">
        <emissions CO_abs="5138.741277" CO2_abs="370773.559377" HC_abs="31.787838" PMx_abs="6.025579" NOx_abs="146.959909" fuel_abs="118260.050880" electricity_abs="0"/>
    </tripinfo>
    <tripinfo id="f_0_2.5" depart="65.00" departLane="E2D2_0" departPos="5.10" departSpeed="0.00" departDelay="0.00" arrival="189.00" arrivalLane="C2B2_0" arrivalPos="492.80" arrivalSpeed="13.42" duration="124.00" routeLength="1495.00" waitingTime="0.00" waitingCount="0" stopTime="0.00" timeLoss="18.29" rerouteNo="0" devices="tripinfo_f_0_2.5 emissions_f_0_2.5" vType="DEFAULT_VEHTYPE" speedFactor="1.02" vaporized="">
        <emissions CO_abs="3751.028376" CO2_abs="335952.811708" HC_abs="24.418427" PMx_abs="4.961933" NOx_abs="128.635371" fuel_abs="107153.839043" electricity_abs="0"/>
    </tripinfo>
    <tripinfo id="f_0_0.5" depart="20.00" departLane="A2B2_0" departPos="5.10" departSpeed="0.00" departDelay="0.00" arrival="191.00" arrivalLane="C2D2_0" arrivalPos="492.80" arrivalSpeed="11.41" duration="171.00" routeLength="1495.00" waitingTime="24.00" waitingCount="1" stopTime="0.00" timeLoss="41.06" rerouteNo="0" devices="tripinfo_f_0_0.5 emissions_f_0_0.5" vType="DEFAULT_VEHTYPE" speedFactor="0.83" vaporized="">
        <emissions CO_abs="8474.202216" CO2_abs="394482.885112" HC_abs="47.578999" PMx_abs="6.071366" NOx_abs="154.796566" fuel_abs="125824.535289" electricity_abs="0"/>
    </tripinfo>
    <tripinfo id="f_0_2.6" depart="68.00" departLane="E2D2_0" departPos="5.10" departSpeed="0.00" departDelay="1.00" arrival="191.00" arrivalLane="C2B2_0" arrivalPos="492.80" arrivalSpeed="12.80" duration="123.00" routeLength="1495.00" waitingTime="0.00" waitingCount="0" stopTime="0.00" timeLoss="12.17" rerouteNo="0" devices="tripinfo_f_0_2.6 emissions_f_0_2.6" vType="DEFAULT_VEHTYPE" speedFactor="0.97" vaporized="">
        <emissions CO_abs="2906.912921" CO2_abs="312644.074161" HC_abs="19.849821" PMx_abs="4.091678" NOx_abs="115.592546" fuel_abs="99719.677215" electricity_abs="0"/>
    </tripinfo>
    <tripinfo id="f_0_0.6" depart="25.00" departLane="A2B2_0" departPos="5.10" departSpeed="0.00" departDelay="0.00" arrival="193.00" arrivalLane="C2D2_0" arrivalPos="492.80" arrivalSpeed="11.63" duration="168.00" routeLength="1495.00" waitingTime="23.00" waitingCount="1" stopTime="0.00" timeLoss="46.04" rerouteNo="0" devices="tripinfo_f_0_0.6 emissions_f_0_0.6" vType="DEFAULT_VEHTYPE" speedFactor="0.89" vaporized="">
        <emissions CO_abs="8716.965937" CO2_abs="410376.693415" HC_abs="49.099696" PMx_abs="6.706930" NOx_abs="163.680393" fuel_abs="130893.507865" electricity_abs="0"/>
    </tripinfo>
    <tripinfo id="f_0_2.7" depart="79.00" departLane="E2D2_0" departPos="5.10" departSpeed="0.00" departDelay="0.00" arrival="193.00" arrivalLane="C2B2_0" arrivalPos="492.80" arrivalSpeed="14.38" duration="114.00" routeLength="1495.00" waitingTime="0.00" waitingCount="0" stopTime="0.00" timeLoss="9.64" rerouteNo="0" devices="tripinfo_f_0_2.7 emissions_f_0_2.7" vType="DEFAULT_VEHTYPE" speedFactor="1.04" vaporized="">
        <emissions CO_abs="2610.398009" CO2_abs="314592.232538" HC_abs="18.284894" PMx_abs="4.125829" NOx_abs="114.996964" fuel_abs="100340.838678" electricity_abs="0"/>
    </tripinfo>
    <tripinfo id="f_0_0.7" depart="29.00" departLane="A2B2_0" departPos="5.10" departSpeed="0.00" departDelay="0.00" arrival="195.00" arrivalLane="C2D2_0" arrivalPos="492.80" arrivalSpeed="13.88" duration="166.00" routeLength="1495.00" waitingTime="21.00" waitingCount="1" stopTime="0.00" timeLoss="66.53" rerouteNo="0" devices="tripinfo_f_0_0.7 emissions_f_0_0.7" vType="DEFAULT_VEHTYPE" speedFactor="1.09" vaporized="">
        <emissions CO_abs="9300.696502" CO2_abs="434368.507113" HC_abs="52.351522" PMx_abs="7.600146" NOx_abs="176.756090" fuel_abs="138545.360719" electricity_abs="0"/>
    </tripinfo>
    <tripinfo id="f_0_0.8" depart="32.00" departLane="A2B2_0" departPos="5.10" departSpeed="0.00" departDelay="0.00" arrival="196.00" arrivalLane="C2D2_0" arrivalPos="492.80" arrivalSpeed="14.75" duration="164.00" routeLength="1495.00" waitingTime="21.00" waitingCount="1" stopTime="0.00" timeLoss="67.99" rerouteNo="0" devices="tripinfo_f_0_0.8 emissions_f_0_0.8" vType="DEFAULT_VEHTYPE" speedFactor="1.12" vaporized="">
        <emissions CO_abs="9214.126523" CO2_abs="445029.178950" HC_abs="52.156592" PMx_abs="7.825414" NOx_abs="180.883252" fuel_abs="141945.450282" electricity_abs="0"/>
    </tripinfo>
    <tripinfo id="f_0_0.9" depart="35.00" departLane="A2B2_0" departPos="5.10" departSpeed="0.00" departDelay="2.00" arrival="198.00" arrivalLane="C2D2_0" arrivalPos="492.80" arrivalSpeed="13.56" duration="163.00" routeLength="1495.00" waitingTime="21.00" waitingCount="1" stopTime="0.00" timeLoss="54.11" rerouteNo="0" devices="tripinfo_f_0_0.9 emissions_f_0_0.9" vType="DEFAULT_VEHTYPE" speedFactor="0.99" vaporized="">
        <emissions CO_abs="9411.112284" CO2_abs="447508.138392" HC_abs="53.155905" PMx_abs="7.945563" NOx_abs="182.697283" fuel_abs="142736.124391" electricity_abs="0"/>
    </tripinfo>
    <tripinfo id="f_0_0.10" depart="38.00" departLane="A2B2_0" departPos="5.10" departSpeed="0.00" departDelay="4.00" arrival="200.00" arrivalLane="C2D2_0" arrivalPos="492.80" arrivalSpeed="12.24" duration="162.00" routeLength="1495.00" waitingTime="21.00" waitingCount="1" stopTime="0.00" timeLoss="45.66" rerouteNo="0" devices="tripinfo_f_0_0.10 emissions_f_0_0.10" vType="DEFAULT_VEHTYPE" speedFactor="0.93" vaporized="">
        <emissions CO_abs="8680.797369" CO2_abs="416159.322910" HC_abs="48.919882" PMx_abs="6.997523" NOx_abs="166.884107" fuel_abs="132737.602374" electricity_abs="0"/>
    </tripinfo>
    <tripinfo id="f_0_0.11" depart="41.00" departLane="A2B2_0" departPos="5.10" departSpeed="0.00" departDelay="2.00" arrival="202.00" arrivalLane="C2D2_0" arrivalPos="492.80" arrivalSpeed="11.73" duration="161.00" routeLength="1495.00" waitingTime="13.00" waitingCount="1" stopTime="0.00" timeLoss="38.19" rerouteNo="0" devices="tripinfo_f_0_0.11 emissions_f_0_0.11" vType="DEFAULT_VEHTYPE" speedFactor="0.88" vaporized="">
        <emissions CO_abs="7881.473155" CO2_abs="420643.833074" HC_abs="45.339667" PMx_abs="6.569414" NOx_abs="165.472806" fuel_abs="134167.995634" electricity_abs="0"/>
    </tripinfo>
    <tripinfo id="f_0_0.12" depart="44.00" departLane="A2B2_0" departPos="5.10" departSpeed="0.00" departDelay="4.00" arrival="204.00" arrivalLane="C2D2_0" arrivalPos="492.80" arrivalSpeed="12.74" duration="160.00" routeLength="1495.00" waitingTime="12.00" waitingCount="1" stopTime="0.00" timeLoss="45.05" rerouteNo="0" devices="tripinfo_f_0_0.12 emissions_f_0_0.12" vType="DEFAULT_VEHTYPE" speedFactor="0.94" vaporized="">
        <emissions CO_abs="8367.877010" CO2_abs="427239.620814" HC_abs="47.918789" PMx_abs="7.388134" NOx_abs="173.341139" fuel_abs="136271.141419" electricity_abs="0"/>
    </tripinfo>
    <tripinfo id="f_0_0.13" depart="47.00" departLane="A2B2_0" departPos="5.10" departSpeed="0.00" departDelay="6.00" arrival="206.00" arrivalLane="C2D2_0" arrivalPos="492.80" arrivalSpeed="16.04" duration="159.00" routeLength="1495.00" waitingTime="12.00" waitingCount="1" stopTime="0.00" timeLoss="65.09" rerouteNo="0" devices="tripinfo_f_0_0.13 emissions_f_0_0.13" vType="DEFAULT_VEHTYPE" speedFactor="1.16" vaporized="">
        <emissions CO_abs="9807.518240" CO2_abs="494380.844779" HC_abs="56.160574" PMx_abs="9.237705" NOx_abs="205.412178" fuel_abs="157685.582287" electricity_abs="0"/>
    </tripinfo>
    <tripinfo id="f_0_0.14" depart="50.00" departLane="A2B2_0" departPos="5.10" departSpeed="0.00" departDelay="6.00" arrival="207.00" arrivalLane="C2D2_0" arrivalPos="492.80" arrivalSpeed="12.85" duration="157.00" routeLength="1495.00" waitingTime="12.00" waitingCount="1" stopTime="0.00" timeLoss="46.48" rerouteNo="0" devices="tripinfo_f_0_0.14 emissions_f_0_0.14" vType="DEFAULT_VEHTYPE" speedFactor="0.97" vaporized="">
        <emissions CO_abs="8562.133812" CO2_abs="453444.156328" HC_abs="49.472382" PMx_abs="8.100249" NOx_abs="185.516022" fuel_abs="144628.780860" electricity_abs="0"/>
    </tripinfo>
    <tripinfo id="f_0_0.15" depart="53.00" departLane="A2B2_0" departPos="5.10" departSpeed="0.00" departDelay="8.00" arrival="210.00" arrivalLane="C2D2_0" arrivalPos="492.80" arrivalSpeed="11.38" duration="157.00" routeLength="1495.00" waitingTime="10.00" waitingCount="1" stopTime="0.00" timeLoss="26.44" rerouteNo="0" devices="tripinfo_f_0_0.15 emissions_f_0_0.15" vType="DEFAULT_VEHTYPE" speedFactor="0.83" vaporized="">
        <emissions CO_abs="6031.483151" CO2_abs="358380.004527" HC_abs="35.610363" PMx_abs="5.078037" NOx_abs="137.709231" fuel_abs="114308.579197" electricity_abs="0"/>
    </tripinfo>
    <tripinfo id="f_0_0.16" depart="56.00" departLane="A2B2_0" departPos="5.10" departSpeed="0.00" departDelay="9.00" arrival="212.00" arrivalLane="C2D2_0" arrivalPos="492.80" arrivalSpeed="12.03" duration="156.00" routeLength="1495.00" waitingTime="9.00" waitingCount="1" stopTime="0.00" timeLoss="42.09" rerouteNo="0" devices="tripinfo_f_0_0.16 emissions_f_0_0.16" vType="DEFAULT_VEHTYPE" speedFactor="0.95" vaporized="">
        <emissions CO_abs="6784.435986" CO2_abs="390551.698576" HC_abs="39.809901" PMx_abs="6.118963" NOx_abs="154.207974" fuel_abs="124569.463644" electricity_abs="0"/>
    </tripinfo>
    <tripinfo id="f_0_0.17" depart="59.00" departLane="A2B2_0" departPos="5.10" departSpeed="0.00" departDelay="0.00" arrival="214.00" arrivalLane="C2D2_0" arrivalPos="492.80" arrivalSpeed="13.80" duration="155.00" routeLength="1495.00" waitingTime="9.00" waitingCount="1" stopTime="0.00" timeLoss="47.10" rerouteNo="0" devices="tripinfo_f_0_0.17 emissions_f_0_0.17" vType="DEFAULT_VEHTYPE" speedFactor="1.01" vaporized="">
        <emissions CO_abs="7683.765461" CO2_abs="434748.566402" HC_abs="45.072167" PMx_abs="7.483471" NOx_abs="176.366468" fuel_abs="138665.680913" electricity_abs="0"/>
    </tripinfo>
    <tripinfo id="f_0_0.18" depart="62.00" departLane="A2B2_0" departPos="5.10" departSpeed="0.00" departDelay="0.00" arrival="215.00" arrivalLane="C2D2_0" arrivalPos="492.80" arrivalSpeed="13.53" duration="153.00" routeLength="1495.00" waitingTime="9.00" waitingCount="1" stopTime="0.00" timeLoss="44.66" rerouteNo="0" devices="tripinfo_f_0_0.18 emissions_f_0_0.18" vType="DEFAULT_VEHTYPE" speedFactor="0.99" vaporized="">
        <emissions CO_abs="7888.677325" CO2_abs="442676.986202" HC_abs="46.038567" PMx_abs="7.706894" NOx_abs="179.932340" fuel_abs="141194.431025" electricity_abs="0"/>
    </tripinfo>
    <tripinfo id="f_0_0.19" depart="71.00" departLane="A2B2_0" departPos="5.10" departSpeed="0.00" departDelay="0.00" arrival="217.00" arrivalLane="C2D2_0" arrivalPos="492.80" arrivalSpeed="14.17" duration="146.00" routeLength="1495.00" waitingTime="7.00" waitingCount="1" stopTime="0.00" timeLoss="48.01" rerouteNo="0" devices="tripinfo_f_0_0.19 emissions_f_0_0.19" vType="DEFAULT_VEHTYPE" speedFactor="1.10" vaporized="">
        <emissions CO_abs="7493.282455" CO2_abs="432780.909950" HC_abs="44.038773" PMx_abs="7.791112" NOx_abs="177.171099" fuel_abs="138037.598490" electricity_abs="0"/>
    </tripinfo>
    <tripinfo id="f_0_3.0" depart="80.00" departLane="C0C1_0" departPos="5.10" departSpeed="0.00" departDelay="0.00" arrival="217.00" arrivalLane="C2C3_0" arrivalPos="492.80" arrivalSpeed="15.02" duration="137.00" routeLength="1495.00" waitingTime="26.00" waitingCount="1" stopTime="0.00" timeLoss="38.04" rerouteNo="0" devices="tripinfo_f_0_3.0 emissions_f_0_3.0" vType="DEFAULT_VEHTYPE" speedFactor="1.09" vaporized="">
        <emissions CO_abs="7162.477612" CO2_abs="380688.912158" HC_abs="40.224255" PMx_abs="5.915277" NOx_abs="145.697676" fuel_abs="121424.114231" electricity_abs="0"/>
    </tripinfo>
    <tripinfo id="f_0_2.8" depart="82.00" departLane="E2D2_0" departPos="5.10" departSpeed="0.00" departDelay="1.00" arrival="218.00" arrivalLane="C2B2_0" arrivalPos="492.80" arrivalSpeed="11.64" duration="136.00" routeLength="1495.00" waitingTime="0.00" waitingCount="0" stopTime="0.00" timeLoss="12.97" rerouteNo="0" devices="tripinfo_f_0_2.8 emissions_f_0_2.8" vType="DEFAULT_VEHTYPE" speedFactor="0.88" vaporized="">
        <emissions CO_abs="3761.551140" CO2_abs="328636.544451" HC_abs="24.479604" PMx_abs="4.324900" NOx_abs="123.315911" fuel_abs="104820.928193" electricity_abs="0"/>
    </tripinfo>
    <tripinfo id="f_0_0.20" depart="74.00" departLane="A2B2_0" departPos="5.10" departSpeed="0.00" departDelay="2.00" arrival="219.00" arrivalLane="C2D2_0" arrivalPos="492.80" arrivalSpeed="12.17" duration="145.00" routeLength="1495.00" waitingTime="5.00" waitingCount="1" stopTime="0.00" timeLoss="25.33" rerouteNo="0" devices="tripinfo_f_0_0.20 emissions_f_0_0.20" vType="DEFAULT_VEHTYPE" speedFactor="0.90" vaporized="">
        <emissions CO_abs="5920.069095" CO2_abs="391020.638715" HC_abs="35.891700" PMx_abs="6.205000" NOx_abs="154.570280" fuel_abs="124718.409856" electricity_abs="0"/>
    </tripinfo>
    <tripinfo id="f_0_2.9" depart="85.00" departLane="E2D2_0" departPos="5.10" departSpeed="0.00" departDelay="2.00" arrival="220.00" arrivalLane="C2B2_0" arrivalPos="492.80" arrivalSpeed="15.61" duration="135.00" routeLength="1495.00" waitingTime="0.00" waitingCount="0" stopTime="0.00" timeLoss="42.25" rerouteNo="0" devices="tripinfo_f_0_2.9 emissions_f_0_2.9" vType="DEFAULT_VEHTYPE" speedFactor="1.17" vaporized="">
        <emissions CO_abs="5037.295988" CO2_abs="376812.143582" HC_abs="31.436699" PMx_abs="6.116340" NOx_abs="149.462750" fuel_abs="120185.965534" electricity_abs="0"/>
    </tripinfo>
    <tripinfo id="f_0_0.21" depart="77.00" departLane="A2B2_0" departPos="5.10" departSpeed="0.00" departDelay="0.00" arrival="221.00" arrivalLane="C2D2_0" arrivalPos="492.80" arrivalSpeed="12.92" duration="144.00" routeLength="1495.00" waitingTime="4.00" waitingCount="1" stopTime="0.00" timeLoss="31.11" rerouteNo="0" devices="tripinfo_f_0_0.21 emissions_f_0_0.21" vType="DEFAULT_VEHTYPE" speedFactor="0.96" vaporized="">
        <emissions CO_abs="6516.532637" CO2_abs="409338.833921" HC_abs="39.161404" PMx_abs="6.959696" NOx_abs="165.165033" fuel_abs="130560.761091" electricity_abs="0"/>
    </tripinfo>
    <tripinfo id="f_0_0.22" depart="81.00" departLane="A2B2_0" departPos="5.10" departSpeed="0.00" departDelay="0.00" arrival="223.00" arrivalLane="C2D2_0" arrivalPos="492.80" arrivalSpeed="12.75" duration="142.00" routeLength="1495.00" waitingTime="2.00" waitingCount="1" stopTime="0.00" timeLoss="33.42" rerouteNo="0" devices="tripinfo_f_0_0.22 emissions_f_0_0.22" vType="DEFAULT_VEHTYPE" speedFactor="1.00" vaporized="">
        <emissions CO_abs="6288.568917" CO2_abs="405860.614300" HC_abs="37.896863" PMx_abs="6.969391" NOx_abs="163.912613" fuel_abs="129451.166976" electricity_abs="0"/>
    </tripinfo>
    <tripinfo id="f_0_1.6" depart="45.00" departLane="C4C3_0" departPos="5.10" departSpeed="0.00" departDelay="0.00" arrival="226.00" arrivalLane="C2C1_0" arrivalPos="492.80" arrivalSpeed="10.94" duration="181.00" routeLength="1495.00" waitingTime="42.00" waitingCount="1" stopTime="0.00" timeLoss="57.24" rerouteNo="0" devices="tripinfo_f_0_1.6 emissions_f_0_1.6" vType="DEFAULT_VEHTYPE" speedFactor="0.87" vaporized="">
        <emissions CO_abs="10919.537727" CO2_abs="440384.693023" HC_abs="59.739302" PMx_abs="7.162733" NOx_abs="174.901413" fuel_abs="140465.913159" electricity_abs="0"/>
    </tripinfo>
    <tripinfo id="f_0_1.7" depart="51.00" departLane="C4C3_0" departPos="5.10" departSpeed="0.00" departDelay="0.00" arrival="228.00" arrivalLane="C2C1_0" arrivalPos="492.80" arrivalSpeed="12.19" duration="177.00" routeLength="1495.00" waitingTime="41.00" waitingCount="1" stopTime="0.00" timeLoss="60.78" rerouteNo="0" devices="tripinfo_f_0_1.7 emissions_f_0_1.7" vType="DEFAULT_VEHTYPE" speedFactor="0.93" vaporized="">
        <emissions CO_abs="11431.734351" CO2_abs="463419.868262" HC_abs="62.612721" PMx_abs="8.138478" NOx_abs="187.952248" fuel_abs="147812.509681" electricity_abs="0"/>
    </tripinfo>
    <tripinfo id="f_0_1.8" depart="56.00" departLane="C4C3_0" departPos="5.10" departSpeed="0.00" departDelay="0.00" arrival="229.00" arrivalLane="C2C1_0" arrivalPos="492.80" arrivalSpeed="14.72" duration="173.00" routeLength="1495.00" waitingTime="41.00" waitingCount="1" stopTime="0.00" timeLoss="81.57" rerouteNo="0" devices="tripinfo_f_0_1.8 emissions_f_0_1.8" vType="DEFAULT_VEHTYPE" speedFactor="1.18" vaporized="">
        <emissions CO_abs="12223.987246" CO2_abs="487334.107902" HC_abs="66.836699" PMx_abs="9.171060" NOx_abs="201.825327" fuel_abs="155439.594988" electricity_abs="0"/>
    </tripinfo>
    <tripinfo id="f_0_3.1" depart="83.00" departLane="C0C1_0" departPos="5.10" departSpeed="0.00" departDelay="2.00" arrival="229.00" arrivalLane="C2C3_0" arrivalPos="492.80" arrivalSpeed="11.38" duration="146.00" routeLength="1495.00" waitingTime="5.00" waitingCount="1" stopTime="0.00" timeLoss="19.44" rerouteNo="0" devices="tripinfo_f_0_3.1 emissions_f_0_3.1" vType="DEFAULT_VEHTYPE" speedFactor="0.85" vaporized="">
        <emissions CO_abs="4688.711123" CO2_abs="335896.595602" HC_abs="28.866248" PMx_abs="4.453296" NOx_abs="126.552918" fuel_abs="107137.055666" electricity_abs="0"/>
    </tripinfo>
    <tripinfo id="f_0_1.9" depart="59.00" departLane="C4C3_0" departPos="5.10" departSpeed="0.00" departDelay="1.00" arrival="231.00" arrivalLane="C2C1_0" arrivalPos="492.80" arrivalSpeed="15.39" duration="172.00" routeLength="1495.00" waitingTime="41.00" waitingCount="1" stopTime="0.00" timeLoss="78.41" rerouteNo="0" devices="tripinfo_f_0_1.9 emissions_f_0_1.9" vType="DEFAULT_VEHTYPE" speedFactor="1.15" vaporized="">
        <emissions CO_abs="12508.411162" CO2_abs="511277.692629" HC_abs="68.795992" PMx_abs="9.748011" NOx_abs="212.583568" fuel_abs="163076.280360" electricity_abs="0"/>
    </tripinfo>
    <tripinfo id="f_0_3.2" depart="86.00" departLane="C0C1_0" departPos="5.10" departSpeed="0.00" departDelay="1.00" arrival="231.00" arrivalLane="C2C3_0" arrivalPos="492.80" arrivalSpeed="13.05" duration="145.00" routeLength="1495.00" waitingTime="3.00" waitingCount="1" stopTime="0.00" timeLoss="37.38" rerouteNo="0" devices="tripinfo_f_0_3.2 emissions_f_0_3.2" vType="DEFAULT_VEHTYPE" speedFactor="1.00" vaporized="">
        <emissions CO_abs="5383.617783" CO2_abs="357414.778540" HC_abs="32.574216" PMx_abs="5.467695" NOx_abs="139.633513" fuel_abs="113999.867696" electricity_abs="0"/>
    </tripinfo>
    <tripinfo id="f_0_1.10" depart="62.00" departLane="C4C3_0" departPos="5.10" departSpeed="0.00" departDelay="2.00" arrival="233.00" arrivalLane="C2C1_0" arrivalPos="492.80" arrivalSpeed="15.70" duration="171.00" routeLength="1495.00" waitingTime="40.00" waitingCount="2" stopTime="0.00" timeLoss="78.44" rerouteNo="0" devices="tripinfo_f_0_1.10 emissions_f_0_1.10" vType="DEFAULT_VEHTYPE" speedFactor="1.17" vaporized="">
        <emissions CO_abs="12517.872143" CO2_abs="513504.482557" HC_abs="68.900990" PMx_abs="9.903393" NOx_abs="214.183719" fuel_abs="163786.390577" electricity_abs="0"/>
    </tripinfo>
    <tripinfo id="f_0_3.3" depart="89.00" departLane="C0C1_0" departPos="5.10" departSpeed="0.00" departDelay="3.00" arrival="233.00" arrivalLane="C2C3_0" arrivalPos="492.80" arrivalSpeed="12.72" duration="144.00" routeLength="1495.00" waitingTime="4.00" waitingCount="1" stopTime="0.00" timeLoss="35.31" rerouteNo="0" devices="tripinfo_f_0_3.3 emissions_f_0_3.3" vType="DEFAULT_VEHTYPE" speedFactor="1.00" vaporized="">