<?xml version="1.0" encoding="UTF-8"?>

<!-- generated on 2024-08-22 12:40:19 by Eclipse SUMO sumo Version 1.17.0
<configuration xmlns:xsi="http://www.w3.org/2001/XMLSchema-instance" xsi:noNamespaceSchemaLocation="http://sumo.dlr.de/xsd/sumoConfiguration.xsd">

    <input>
        <net-file value="single_static.net.xml"/>
        <route-files value="single_3.rou.xml"/>
    </input>

    <output>
        <tripinfo-output value="emissions_test\z_static_3_emissions_tripinfo_single.xml"/>
    </output>

    <processing>
        <time-to-teleport value="-1"/>
    </processing>

    <emissions>
        <device.emissions.probability value="1.0"/>
    </emissions>

    <traci_server>
        <remote-port value="57276"/>
    </traci_server>

</configuration>
-->

<tripinfos xmlns:xsi="http://www.w3.org/2001/XMLSchema-instance" xsi:noNamespaceSchemaLocation="http://sumo.dlr.de/xsd/tripinfo_file.xsd">
    <tripinfo id="f_0_0.0" depart="2.00" departLane="A2B2_0" departPos="5.10" departSpeed="0.00" departDelay="0.00" arrival="111.00" arrivalLane="C2D2_0" arrivalPos="492.80" arrivalSpeed="14.64" duration="109.00" routeLength="1495.00" waitingTime="0.00" waitingCount="0" stopTime="0.00" timeLoss="6.68" rerouteNo="0" devices="tripinfo_f_0_0.0 emissions_f_0_0.0" vType="DEFAULT_VEHTYPE" speedFactor="1.06" vaporized="">
        <emissions CO_abs="2172.950827" CO2_abs="286843.264686" HC_abs="15.669118" PMx_abs="3.764274" NOx_abs="104.312011" fuel_abs="91490.063859" electricity_abs="0"/>
    </tripinfo>
    <tripinfo id="f_0_1.0" depart="26.00" departLane="C4C3_0" departPos="5.10" departSpeed="0.00" departDelay="0.00" arrival="138.00" arrivalLane="C2C1_0" arrivalPos="492.80" arrivalSpeed="13.60" duration="112.00" routeLength="1495.00" waitingTime="0.00" waitingCount="0" stopTime="0.00" timeLoss="8.22" rerouteNo="0" devices="tripinfo_f_0_1.0 emissions_f_0_1.0" vType="DEFAULT_VEHTYPE" speedFactor="1.05" vaporized="">
        <emissions CO_abs="2328.568428" CO2_abs="289581.945801" HC_abs="16.482963" PMx_abs="3.761824" NOx_abs="105.206360" fuel_abs="92363.699817" electricity_abs="0"/>
    </tripinfo>
    <tripinfo id="f_0_1.1" depart="29.00" departLane="C4C3_0" departPos="5.10" departSpeed="0.00" departDelay="2.00" arrival="160.00" arrivalLane="C2C1_0" arrivalPos="492.80" arrivalSpeed="11.05" duration="131.00" routeLength="1495.00" waitingTime="0.00" waitingCount="0" stopTime="0.00" timeLoss="9.12" rerouteNo="0" devices="tripinfo_f_0_1.1 emissions_f_0_1.1" vType="DEFAULT_VEHTYPE" speedFactor="0.89" vaporized="">
        <emissions CO_abs="2891.722939" CO2_abs="294398.609933" HC_abs="19.694745" PMx_abs="3.678963" NOx_abs="108.729097" fuel_abs="93900.453570" electricity_abs="0"/>
    </tripinfo>
    <tripinfo id="f_0_1.2" depart="32.00" departLane="C4C3_0" departPos="5.10" departSpeed="0.00" departDelay="3.00" arrival="168.00" arrivalLane="C2C1_0" arrivalPos="492.80" arrivalSpeed="11.45" duration="136.00" routeLength="1495.00" waitingTime="0.00" waitingCount="0" stopTime="0.00" timeLoss="10.19" rerouteNo="0" devices="tripinfo_f_0_1.2 emissions_f_0_1.2" vType="DEFAULT_VEHTYPE" speedFactor="0.86" vaporized="">
        <emissions CO_abs="3064.189176" CO2_abs="302447.788427" HC_abs="20.620147" PMx_abs="3.573492" NOx_abs="110.571624" fuel_abs="96468.086717" electricity_abs="0"/>
    </tripinfo>
    <tripinfo id="f_0_1.3" depart="42.00" departLane="C4C3_0" departPos="5.10" departSpeed="0.00" departDelay="0.00" arrival="174.00" arrivalLane="C2C1_0" arrivalPos="492.80" arrivalSpeed="10.95" duration="132.00" routeLength="1495.00" waitingTime="0.00" waitingCount="0" stopTime="0.00" timeLoss="9.22" rerouteNo="0" devices="tripinfo_f_0_1.3 emissions_f_0_1.3" vType="DEFAULT_VEHTYPE" speedFactor="0.88" vaporized="">
        <emissions CO_abs="2974.207336" CO2_abs="293417.076231" HC_abs="19.983977" PMx_abs="3.730048" NOx_abs="108.812129" fuel_abs="93587.375890" electricity_abs="0"/>
    </tripinfo>
    <tripinfo id="f_0_2.0" depart="40.00" departLane="E2D2_0" departPos="5.10" departSpeed="0.00" departDelay="0.00" arrival="176.00" arrivalLane="C2B2_0" arrivalPos="492.80" arrivalSpeed="12.52" duration="136.00" routeLength="1495.00" waitingTime="14.00" waitingCount="1" stopTime="0.00" timeLoss="26.79" rerouteNo="0" devices="tripinfo_f_0_2.0 emissions_f_0_2.0" vType="DEFAULT_VEHTYPE" speedFactor="0.99" vaporized="">
        <emissions CO_abs="5387.937386" CO2_abs="352294.171156" HC_abs="31.899786" PMx_abs="5.152496" NOx_abs="133.917892" fuel_abs="112366.985999" electricity_abs="0"/>
    </tripinfo>
    <tripinfo id="f_0_1.4" depart="45.00" departLane="C4C3_0" departPos="5.10" departSpeed="0.00" departDelay="0.00" arrival="176.00" arrivalLane="C2C1_0" arrivalPos="492.80" arrivalSpeed="14.01" duration="131.00" routeLength="1495.00" waitingTime="0.00" waitingCount="0" stopTime="0.00" timeLoss="24.49" rerouteNo="0" devices="tripinfo_f_0_1.4 emissions_f_0_1.4" vType="DEFAULT_VEHTYPE" speedFactor="1.02" vaporized="">
        <emissions CO_abs="3943.566305" CO2_abs="339491.512676" HC_abs="25.549722" PMx_abs="5.097688" NOx_abs="131.693497" fuel_abs="108282.486577" electricity_abs="0"/>
    </tripinfo>
    <tripinfo id="f_0_0.1" depart="5.00" departLane="A2B2_0" departPos="5.10" departSpeed="0.00" departDelay="0.00" arrival="178.00" arrivalLane="C2D2_0" arrivalPos="492.80" arrivalSpeed="12.47" duration="173.00" routeLength="1495.00" waitingTime="43.00" waitingCount="1" stopTime="0.00" timeLoss="57.68" rerouteNo="0" devices="tripinfo_f_0_0.1 emissions_f_0_0.1" vType="DEFAULT_VEHTYPE" speedFactor="0.94" vaporized="">
        <emissions CO_abs="10268.783280" CO2_abs="426660.084540" HC_abs="56.112489" PMx_abs="6.834599" NOx_abs="167.546306" fuel_abs="136088.251288" electricity_abs="0"/>
    </tripinfo>
    <tripinfo id="f_0_0.2" depart="10.00" departLane="A2B2_0" departPos="5.10" departSpeed="0.00" departDelay="0.00" arrival="180.00" arrivalLane="C2D2_0" arrivalPos="492.80" arrivalSpeed="12.93" duration="170.00" routeLength="1495.00" waitingTime="42.00" waitingCount="1" stopTime="0.00" timeLoss="62.59" rerouteNo="0" devices="tripinfo_f_0_0.2 emissions_f_0_0.2" vType="DEFAULT_VEHTYPE" speedFactor="1.01" vaporized="">
        <emissions CO_abs="11270.837209" CO2_abs="456699.668010" HC_abs="61.560040" PMx_abs="8.076386" NOx_abs="184.795850" fuel_abs="145668.990324" electricity_abs="0"/>
    </tripinfo>
    <tripinfo id="f_0_2.1" depart="43.00" departLane="E2D2_0" departPos="5.10" departSpeed="0.00" departDelay="1.00" arrival="180.00" arrivalLane="C2B2_0" arrivalPos="492.80" arrivalSpeed="12.14" duration="137.00" routeLength="1495.00" waitingTime="6.00" waitingCount="1" stopTime="0.00" timeLoss="21.92" rerouteNo="0" devices="tripinfo_f_0_2.1 emissions_f_0_2.1" vType="DEFAULT_VEHTYPE" speedFactor="0.94" vaporized="">
        <emissions CO_abs="4596.142474" CO2_abs="335310.984875" HC_abs="27.940322" PMx_abs="4.555172" NOx_abs="125.646853" fuel_abs="106950.120377" electricity_abs="0"/>
    </tripinfo>
    <tripinfo id="f_0_0.3" depart="16.00" departLane="A2B2_0" departPos="5.10" departSpeed="0.00" departDelay="0.00" arrival="181.00" arrivalLane="C2D2_0" arrivalPos="492.80" arrivalSpeed="14.69" duration="165.00" routeLength="1495.00" waitingTime="41.00" waitingCount="1" stopTime="0.00" timeLoss="65.28" rerouteNo="0" devices="tripinfo_f_0_0.3 emissions_f_0_0.3" vType="DEFAULT_VEHTYPE" speedFactor="1.08" vaporized="">
        <emissions CO_abs="11249.611268" CO2_abs="471065.812742" HC_abs="61.781728" PMx_abs="8.511161" NOx_abs="191.392387" fuel_abs="150250.776765" electricity_abs="0"/>
    </tripinfo>
    <tripinfo id="f_0_2.2" depart="46.00" departLane="E2D2_0" departPos="5.10" departSpeed="0.00" departDelay="1.00" arrival="181.00" arrivalLane="C2B2_0" arrivalPos="492.80" arrivalSpeed="13.06" duration="135.00" routeLength="1495.00" waitingTime="6.00" waitingCount="1" stopTime="0.00" timeLoss="28.39" rerouteNo="0" devices="tripinfo_f_0_2.2 emissions_f_0_2.2" vType="DEFAULT_VEHTYPE" speedFactor="1.01" vaporized="">
        <emissions CO_abs="5165.206369" CO2_abs="354615.684534" HC_abs="31.323837" PMx_abs="5.446975" NOx_abs="137.439433" fuel_abs="113106.980714" electricity_abs="0"/>
    </tripinfo>
    <tripinfo id="f_0_0.4" depart="20.00" departLane="A2B2_0" departPos="5.10" departSpeed="0.00" departDelay="0.00" arrival="183.00" arrivalLane="C2D2_0" arrivalPos="492.80" arrivalSpeed="13.05" duration="163.00" routeLength="1495.00" waitingTime="41.00" waitingCount="1" stopTime="0.00" timeLoss="58.00" rerouteNo="0" devices="tripinfo_f_0_0.4 emissions_f_0_0.4" vType="DEFAULT_VEHTYPE" speedFactor="1.03" vaporized="">
        <emissions CO_abs="10336.579859" CO2_abs="440318.821005" HC_abs="56.494317" PMx_abs="7.350794" NOx_abs="174.065389" fuel_abs="140444.341276" electricity_abs="0"/>
    </tripinfo>
    <tripinfo id="f_0_2.3" depart="50.00" departLane="E2D2_0" departPos="5.10" departSpeed="0.00" departDelay="0.00" arrival="183.00" arrivalLane="C2B2_0" arrivalPos="492.80" arrivalSpeed="12.58" duration="133.00" routeLength="1495.00" waitingTime="5.00" waitingCount="1" stopTime="0.00" timeLoss="22.45" rerouteNo="0" devices="tripinfo_f_0_2.3 emissions_f_0_2.3" vType="DEFAULT_VEHTYPE" speedFactor="0.97" vaporized="">
        <emissions CO_abs="4475.258811" CO2_abs="327522.080557" HC_abs="27.337650" PMx_abs="4.627194" NOx_abs="123.555125" fuel_abs="104465.587231" electricity_abs="0"/>
    </tripinfo>
    <tripinfo id="f_0_2.4" depart="65.00" departLane="E2D2_0" departPos="5.10" departSpeed="0.00" departDelay="0.00" arrival="189.00" arrivalLane="C2B2_0" arrivalPos="492.80" arrivalSpeed="12.26" duration="124.00" routeLength="1495.00" waitingTime="0.00" waitingCount="0" stopTime="0.00" timeLoss="8.22" rerouteNo="0" devices="tripinfo_f_0_2.4 emissions_f_0_2.4" vType="DEFAULT_VEHTYPE" speedFactor="0.93" vaporized="">
        <emissions CO_abs="2666.520159" CO2_abs="296608.621185" HC_abs="18.490706" PMx_abs="3.726758" NOx_abs="108.760904" fuel_abs="94605.203416" electricity_abs="0"/>
    </tripinfo>
    <tripinfo id="f_0_2.5" depart="68.00" departLane="E2D2_0" departPos="5.10" departSpeed="0.00" departDelay="1.00" arrival="191.00" arrivalLane="C2B2_0" arrivalPos="492.80" arrivalSpeed="15.20" duration="123.00" routeLength="1495.00" waitingTime="0.00" waitingCount="0" stopTime="0.00" timeLoss="31.07" rerouteNo="0" devices="tripinfo_f_0_2.5 emissions_f_0_2.5" vType="DEFAULT_VEHTYPE" speedFactor="1.18" vaporized="">
        <emissions CO_abs="3794.735798" CO2_abs="346121.162447" HC_abs="25.011032" PMx_abs="5.286668" NOx_abs="134.109539" fuel_abs="110396.839174" electricity_abs="0"/>
    </tripinfo>
    <tripinfo id="f_0_0.5" depart="25.00" departLane="A2B2_0" departPos="5.10" departSpeed="0.00" departDelay="0.00" arrival="192.00" arrivalLane="C2D2_0" arrivalPos="492.80" arrivalSpeed="10.64" duration="167.00" routeLength="1495.00" waitingTime="22.00" waitingCount="1" stopTime="0.00" timeLoss="36.62" rerouteNo="0" devices="tripinfo_f_0_0.5 emissions_f_0_0.5" vType="DEFAULT_VEHTYPE" speedFactor="0.83" vaporized="">
        <emissions CO_abs="7717.765812" CO2_abs="385950.879823" HC_abs="43.930495" PMx_abs="5.583576" NOx_abs="149.113233" fuel_abs="123103.193345" electricity_abs="0"/>
    </tripinfo>
    <tripinfo id="f_0_0.6" depart="29.00" departLane="A2B2_0" departPos="5.10" departSpeed="0.00" departDelay="0.00" arrival="193.00" arrivalLane="C2D2_0" arrivalPos="492.80" arrivalSpeed="12.20" duration="164.00" routeLength="1495.00" waitingTime="21.00" waitingCount="1" stopTime="0.00" timeLoss="49.10" rerouteNo="0" devices="tripinfo_f_0_0.6 emissions_f_0_0.6" vType="DEFAULT_VEHTYPE" speedFactor="0.94" vaporized="">
        <emissions CO_abs="8565.796340" CO2_abs="425777.936393" HC_abs="48.778241" PMx_abs="7.037776" NOx_abs="170.479981" fuel_abs="135805.464955" electricity_abs="0"/>
    </tripinfo>
    <tripinfo id="f_0_0.7" depart="32.00" departLane="A2B2_0" departPos="5.10" departSpeed="0.00" departDelay="0.00" arrival="195.00" arrivalLane="C2D2_0" arrivalPos="492.80" arrivalSpeed="15.00" duration="163.00" routeLength="1495.00" waitingTime="19.00" waitingCount="1" stopTime="0.00" timeLoss="63.77" rerouteNo="0" devices="tripinfo_f_0_0.7 emissions_f_0_0.7" vType="DEFAULT_VEHTYPE" speedFactor="1.09" vaporized="">
        <emissions CO_abs="8988.872416" CO2_abs="429004.512388" HC_abs="50.915232" PMx_abs="7.816366" NOx_abs="177.058804" fuel_abs="136833.961242" electricity_abs="0"/>
    </tripinfo>
    <tripinfo id="f_0_0.8" depart="35.00" departLane="A2B2_0" departPos="5.10" departSpeed="0.00" departDelay="1.00" arrival="197.00" arrivalLane="C2D2_0" arrivalPos="492.80" arrivalSpeed="13.20" duration="162.00" routeLength="1495.00" waitingTime="18.00" waitingCount="1" stopTime="0.00" timeLoss="56.37" rerouteNo="0" devices="tripinfo_f_0_0.8 emissions_f_0_0.8" vType="DEFAULT_VEHTYPE" speedFactor="1.03" vaporized="">
        <emissions CO_abs="9246.990669" CO2_abs="456974.694896" HC_abs="52.672760" PMx_abs="8.185799" NOx_abs="187.324012" fuel_abs="145755.217839" electricity_abs="0"/>
    </tripinfo>
    <tripinfo id="f_0_0.9" depart="39.00" departLane="A2B2_0" departPos="5.10" departSpeed="0.00" departDelay="0.00" arrival="198.00" arrivalLane="C2D2_0" arrivalPos="492.80" arrivalSpeed="13.27" duration="159.00" routeLength="1495.00" waitingTime="18.00" waitingCount="1" stopTime="0.00" timeLoss="56.12" rerouteNo="0" devices="tripinfo_f_0_0.9 emissions_f_0_0.9" vType="DEFAULT_VEHTYPE" speedFactor="1.05" vaporized="">
        <emissions CO_abs="9092.307727" CO2_abs="451108.383569" HC_abs="51.714193" PMx_abs="8.032259" NOx_abs="184.173876" fuel_abs="143884.158340" electricity_abs="0"/>
    </tripinfo>
    <tripinfo id="f_0_2.6" depart="79.00" departLane="E2D2_0" departPos="5.10" departSpeed="0.00" departDelay="0.00" arrival="199.00" arrivalLane="C2B2_0" arrivalPos="492.80" arrivalSpeed="13.08" duration="120.00" routeLength="1495.00" waitingTime="0.00" waitingCount="0" stopTime="0.00" timeLoss="8.45" rerouteNo="0" devices="tripinfo_f_0_2.6 emissions_f_0_2.6" vType="DEFAULT_VEHTYPE" speedFactor="0.97" vaporized="">
        <emissions CO_abs="2385.151049" CO2_abs="292618.264276" HC_abs="16.691776" PMx_abs="3.523613" NOx_abs="105.458737" fuel_abs="93332.457691" electricity_abs="0"/>
    </tripinfo>
    <tripinfo id="f_0_0.10" depart="42.00" departLane="A2B2_0" departPos="5.10" departSpeed="0.00" departDelay="2.00" arrival="200.00" arrivalLane="C2D2_0" arrivalPos="492.80" arrivalSpeed="14.85" duration="158.00" routeLength="1495.00" waitingTime="22.00" waitingCount="2" stopTime="0.00" timeLoss="61.70" rerouteNo="0" devices="tripinfo_f_0_0.10 emissions_f_0_0.10" vType="DEFAULT_VEHTYPE" speedFactor="1.12" vaporized="">
        <emissions CO_abs="9978.573744" CO2_abs="478922.904896" HC_abs="56.314613" PMx_abs="8.633039" NOx_abs="195.413381" fuel_abs="152755.911020" electricity_abs="0"/>
    </tripinfo>
    <tripinfo id="f_0_0.11" depart="45.00" departLane="A2B2_0" departPos="5.10" departSpeed="0.00" departDelay="4.00" arrival="202.00" arrivalLane="C2D2_0" arrivalPos="492.80" arrivalSpeed="12.07" duration="157.00" routeLength="1495.00" waitingTime="15.00" waitingCount="1" stopTime="0.00" timeLoss="40.46" rerouteNo="0" devices="tripinfo_f_0_0.11 emissions_f_0_0.11" vType="DEFAULT_VEHTYPE" speedFactor="0.93" vaporized="">
        <emissions CO_abs="8271.575497" CO2_abs="433596.710350" HC_abs="47.456397" PMx_abs="7.143099" NOx_abs="173.138167" fuel_abs="138299.068832" electricity_abs="0"/>
    </tripinfo>
    <tripinfo id="f_0_0.12" depart="48.00" departLane="A2B2_0" departPos="5.10" departSpeed="0.00" departDelay="4.00" arrival="204.00" arrivalLane="C2D2_0" arrivalPos="492.80" arrivalSpeed="12.59" duration="156.00" routeLength="1495.00" waitingTime="13.00" waitingCount="1" stopTime="0.00" timeLoss="40.47" rerouteNo="0" devices="tripinfo_f_0_0.12 emissions_f_0_0.12" vType="DEFAULT_VEHTYPE" speedFactor="0.94" vaporized="">
        <emissions CO_abs="8025.088289" CO2_abs="427609.654493" HC_abs="46.313178" PMx_abs="7.248873" NOx_abs="172.118654" fuel_abs="136389.142009" electricity_abs="0"/>
    </tripinfo>
    <tripinfo id="f_0_0.13" depart="51.00" departLane="A2B2_0" departPos="5.10" departSpeed="0.00" departDelay="6.00" arrival="205.00" arrivalLane="C2D2_0" arrivalPos="492.80" arrivalSpeed="14.43" duration="154.00" routeLength="1495.00" waitingTime="13.00" waitingCount="1" stopTime="0.00" timeLoss="61.03" rerouteNo="0" devices="tripinfo_f_0_0.13 emissions_f_0_0.13" vType="DEFAULT_VEHTYPE" speedFactor="1.16" vaporized="">
        <emissions CO_abs="8581.266630" CO2_abs="450011.547311" HC_abs="49.413964" PMx_abs="8.059784" NOx_abs="184.316911" fuel_abs="143533.939596" electricity_abs="0"/>
    </tripinfo>
    <tripinfo id="f_0_0.14" depart="59.00" departLane="A2B2_0" departPos="5.10" departSpeed="0.00" departDelay="0.00" arrival="207.00" arrivalLane="C2D2_0" arrivalPos="492.80" arrivalSpeed="12.38" duration="148.00" routeLength="1495.00" waitingTime="11.00" waitingCount="1" stopTime="0.00" timeLoss="30.58" rerouteNo="0" devices="tripinfo_f_0_0.14 emissions_f_0_0.14" vType="DEFAULT_VEHTYPE" speedFactor="0.92" vaporized="">
        <emissions CO_abs="6721.286168" CO2_abs="397349.079761" HC_abs="39.566331" PMx_abs="6.323880" NOx_abs="156.858613" fuel_abs="126737.339277" electricity_abs="0"/>
    </tripinfo>
    <tripinfo id="f_0_0.15" depart="62.00" departLane="A2B2_0" departPos="5.10" departSpeed="0.00" departDelay="0.00" arrival="209.00" arrivalLane="C2D2_0" arrivalPos="492.80" arrivalSpeed="15.19" duration="147.00" routeLength="1495.00" waitingTime="9.00" waitingCount="1" stopTime="0.00" timeLoss="51.40" rerouteNo="0" devices="tripinfo_f_0_0.15 emissions_f_0_0.15" vType="DEFAULT_VEHTYPE" speedFactor="1.13" vaporized="">
        <emissions CO_abs="7321.220795" CO2_abs="435799.620981" HC_abs="43.157591" PMx_abs="7.286481" NOx_abs="174.377733" fuel_abs="139000.976450" electricity_abs="0"/>
    </tripinfo>
    <tripinfo id="f_0_0.16" depart="71.00" departLane="A2B2_0" departPos="5.10" departSpeed="0.00" departDelay="0.00" arrival="211.00" arrivalLane="C2D2_0" arrivalPos="492.80" arrivalSpeed="13.17" duration="140.00" routeLength="1495.00" waitingTime="7.00" waitingCount="1" stopTime="0.00" timeLoss="32.28" rerouteNo="0" devices="tripinfo_f_0_0.16 emissions_f_0_0.16" vType="DEFAULT_VEHTYPE" speedFactor="1.01" vaporized="">
        <emissions CO_abs="6247.864326" CO2_abs="399477.562796" HC_abs="37.494901" PMx_abs="6.592132" NOx_abs="158.888020" fuel_abs="127415.653774" electricity_abs="0"/>
    </tripinfo>
    <tripinfo id="f_0_0.17" depart="74.00" departLane="A2B2_0" departPos="5.10" departSpeed="0.00" departDelay="2.00" arrival="212.00" arrivalLane="C2D2_0" arrivalPos="492.80" arrivalSpeed="15.32" duration="138.00" routeLength="1495.00" waitingTime="7.00" waitingCount="1" stopTime="0.00" timeLoss="46.05" rerouteNo="0" devices="tripinfo_f_0_0.17 emissions_f_0_0.17" vType="DEFAULT_VEHTYPE" speedFactor="1.17" vaporized="">
        <emissions CO_abs="6996.883415" CO2_abs="441156.570449" HC_abs="41.864566" PMx_abs="7.557805" NOx_abs="177.255723" fuel_abs="140709.142200" electricity_abs="0"/>
    </tripinfo>
    <tripinfo id="f_0_0.18" depart="81.00" departLane="A2B2_0" departPos="5.10" departSpeed="0.00" departDelay="0.00" arrival="215.00" arrivalLane="C2D2_0" arrivalPos="492.80" arrivalSpeed="12.10" duration="134.00" routeLength="1495.00" waitingTime="0.00" waitingCount="0" stopTime="0.00" timeLoss="13.98" rerouteNo="0" devices="tripinfo_f_0_0.18 emissions_f_0_0.18" vType="DEFAULT_VEHTYPE" speedFactor="0.90" vaporized="">
        <emissions CO_abs="4264.332693" CO2_abs="365986.588219" HC_abs="27.612444" PMx_abs="5.337483" NOx_abs="140.993930" fuel_abs="116733.409084" electricity_abs="0"/>
    </tripinfo>
    <tripinfo id="f_0_3.0" depart="80.00" departLane="C0C1_0" departPos="5.10" departSpeed="0.00" departDelay="0.00" arrival="217.00" arrivalLane="C2C3_0" arrivalPos="492.80" arrivalSpeed="14.88" duration="137.00" routeLength="1495.00" waitingTime="26.00" waitingCount="1" stopTime="0.00" timeLoss="39.24" rerouteNo="0" devices="tripinfo_f_0_3.0 emissions_f_0_3.0" vType="DEFAULT_VEHTYPE" speedFactor="1.10" vaporized="">
        <emissions CO_abs="7566.647775" CO2_abs="384162.164587" HC_abs="42.415452" PMx_abs="6.280136" NOx_abs="149.142930" fuel_abs="122531.830041" electricity_abs="0"/>
    </tripinfo>
    <tripinfo id="f_0_0.19" depart="89.00" departLane="A2B2_0" departPos="5.10" departSpeed="0.00" departDelay="0.00" arrival="218.00" arrivalLane="C2D2_0" arrivalPos="492.80" arrivalSpeed="12.25" duration="129.00" routeLength="1495.00" waitingTime="0.00" waitingCount="0" stopTime="0.00" timeLoss="8.97" rerouteNo="0" devices="tripinfo_f_0_0.19 emissions_f_0_0.19" vType="DEFAULT_VEHTYPE" speedFactor="0.90" vaporized="">
        <emissions CO_abs="2918.906389" CO2_abs="302614.066590" HC_abs="19.847630" PMx_abs="3.791619" NOx_abs="111.511190" fuel_abs="96520.789754" electricity_abs="0"/>
    </tripinfo>
    <tripinfo id="f_0_0.20" depart="95.00" departLane="A2B2_0" departPos="5.10" departSpeed="0.00" departDelay="0.00" arrival="220.00" arrivalLane="C2D2_0" arrivalPos="492.80" arrivalSpeed="15.76" duration="125.00" routeLength="1495.00" waitingTime="0.00" waitingCount="0" stopTime="0.00" timeLoss="32.09" rerouteNo="0" devices="tripinfo_f_0_0.20 emissions_f_0_0.20" vType="DEFAULT_VEHTYPE" speedFactor="1.17" vaporized="">
        <emissions CO_abs="3931.263395" CO2_abs="338053.437226" HC_abs="25.535506" PMx_abs="5.332476" NOx_abs="132.370395" fuel_abs="107823.535736" electricity_abs="0"/>
    </tripinfo>
    <tripinfo id="f_0_3.1" depart="83.00" departLane="C0C1_0" departPos="5.10" departSpeed="0.00" departDelay="2.00" arrival="222.00" arrivalLane="C2C3_0" arrivalPos="492.80" arrivalSpeed="13.57" duration="139.00" routeLength="1495.00" waitingTime="19.00" waitingCount="1" stopTime="0.00" timeLoss="33.91" rerouteNo="0" devices="tripinfo_f_0_3.1 emissions_f_0_3.1" vType="DEFAULT_VEHTYPE" speedFactor="1.03" vaporized="">
        <emissions CO_abs="6480.713351" CO2_abs="367225.051457" HC_abs="37.321378" PMx_abs="5.770762" NOx_abs="142.179692" fuel_abs="117129.392692" electricity_abs="0"/>
    </tripinfo>
    <tripinfo id="f_0_3.2" depart="86.00" departLane="C0C1_0" departPos="5.10" departSpeed="0.00" departDelay="1.00" arrival="224.00" arrivalLane="C2C3_0" arrivalPos="492.80" arrivalSpeed="13.81" duration="138.00" routeLength="1495.00" waitingTime="18.00" waitingCount="1" stopTime="0.00" timeLoss="33.48" rerouteNo="0" devices="tripinfo_f_0_3.2 emissions_f_0_3.2" vType="DEFAULT_VEHTYPE" speedFactor="1.04" vaporized="">
        <emissions CO_abs="6448.094792" CO2_abs="376534.944013" HC_abs="37.289390" PMx_abs="5.779773" NOx_abs="144.569535" fuel_abs="120098.895935" electricity_abs="0"/>
    </tripinfo>
    <tripinfo id="f_0_3.3" depart="89.00" departLane="C0C1_0" departPos="5.10" departSpeed="0.00" departDelay="3.00" arrival="225.00" arrivalLane="C2C3_0" arrivalPos="492.80" arrivalSpeed="14.21" duration="136.00" routeLength="1495.00" waitingTime="17.00" waitingCount="1" stopTime="0.00" timeLoss="32.79" rerouteNo="0" devices="tripinfo_f_0_3.3 emissions_f_0_3.3" vType="DEFAULT_VEHTYPE" speedFactor="1.04" vaporized="">
        <emissions CO_abs="6241.033460" CO2_abs="369994.609722" HC_abs="36.118113" PMx_abs="5.622762" NOx_abs="141.418817" fuel_abs="118012.797847" electricity_abs="0"/>
    </tripinfo>
    <tripinfo id="f_0_1.5" depart="51.00" departLane="C4C3_0" departPos="5.10" departSpeed="0.00" departDelay="0.00" arrival="226.00" arrivalLane="C2C1_0" arrivalPos="492.80" arrivalSpeed="11.46" duration="175.00" routeLength="1495.00" waitingTime="38.00" waitingCount="1" stopTime="0.00" timeLoss="53.16" rerouteNo="0" devices="tripinfo_f_0_1.5 emissions_f_0_1.5" vType="DEFAULT_VEHTYPE" speedFactor="0.89" vaporized="">
        <emissions CO_abs="10015.162028" CO2_abs="422824.030959" HC_abs="55.132491" PMx_abs="6.733946" NOx_abs="166.642853" fuel_abs="134864.620414" electricity_abs="0"/>
    </tripinfo>
    <tripinfo id="f_0_3.4" depart="92.00" departLane="C0C1_0" departPos="5.10" departSpeed="0.00" departDelay="5.00" arrival="229.00" arrivalLane="C2C3_0" arrivalPos="492.80" arrivalSpeed="13.75" duration="137.00" routeLength="1495.00" waitingTime="13.00" waitingCount="1" stopTime="0.00" timeLoss="28.42" rerouteNo="0" devices="tripinfo_f_0_3.4 emissions_f_0_3.4" vType="DEFAULT_VEHTYPE" speedFactor="1.00" vaporized="">
        <emissions CO_abs="5758.630965" CO2_abs="356823.080506" HC_abs="33.882171" PMx_abs="5.389110" NOx_abs="136.851279" fuel_abs="113811.516166" electricity_abs="0"/>
    </tripinfo>
    <tripinfo id="f_0_1.6" depart="56.00" departLane="C4C3_0" departPos="5.10" departSpeed="0.00" departDelay="0.00" arrival="231.00" arrivalLane="C2C1_0" arrivalPos="492.80" arrivalSpeed="10.78" duration="175.00" routeLength="1495.00" waitingTime="25.00" waitingCount="2" stopTime="0.00" timeLoss="44.35" rerouteNo="0" devices="tripinfo_f_0_1.6 emissions_f_0_1.6" vType="DEFAULT_VEHTYPE" speedFactor="0.83" vaporized="">
        <emissions CO_abs="9201.214788" CO2_abs="408440.568792" HC_abs="51.285488" PMx_abs="6.603623" NOx_abs="162.977006" fuel_abs="130276.336617" electricity_abs="0"/>
    </tripinfo>
    <tripinfo id="f_0_1.7" depart="59.00" departLane="C4C3_0" departPos="5.10" departSpeed="0.00" departDelay="1.00" arrival="233.00" arrivalLane="C2C1_0" arrivalPos="492.80" arrivalSpeed="11.61" duration="174.00" routeLength="1495.00" waitingTime="22.00" waitingCount="2" stopTime="0.00" timeLoss="50.13" rerouteNo="0" devices="tripinfo_f_0_1.7 emissions_f_0_1.7" vType="DEFAULT_VEHTYPE" speedFactor="0.87" vaporized="">
        <emissions CO_abs="9618.463503" CO2_abs="449668.678428" HC_abs="54.078614" PMx_abs="7.478001" NOx_abs="180.520797" fuel_abs="143425.925395" electricity_abs="0"/>
    </tripinfo>
    <tripinfo id="f_0_1.8" depart="62.00" departLane="C4C3_0" departPos="5.10" departSpeed="0.00" departDelay="2.00" arrival="235.00" arrivalLane="C2C1_0" arrivalPos="492.80" arrivalSpeed="12.03" duration="173.00" routeLength="1495.00" waitingTime="21.00" waitingCount="2" stopTime="0.00" timeLoss="58.84" rerouteNo="0" devices="tripinfo_f_0_1.8 emissions_f_0_1.8" vType="DEFAULT_VEHTYPE" speedFactor="0.95" vaporized="">
        <emissions CO_abs="9729.209669" CO2_abs="447844.929070" HC_abs="54.652029" PMx_abs="7.717797" NOx_abs="181.685624" fuel_abs="142844.000388" electricity_abs="0"/>
    </tripinfo>
    <tripinfo id="f_0_1.9" depart="69.00" departLane="C4C3_0" departPos="5.10" departSpeed="0.00" departDelay="0.00" arrival="236.00" arrivalLane="C2C1_0" arrivalPos="492.80" arrivalSpeed="13.68" duration="167.00" routeLength="1495.00" waitingTime="20.00" waitingCount="1" stopTime="0.00" timeLoss="73.67" rerouteNo="0" devices="tripinfo_f_0_1.9 emissions_f_0_1.9" vType="DEFAULT_VEHTYPE" speedFactor="1.15" vaporized="">
        <emissions CO_abs="9917.582259" CO2_abs="461098.365028" HC_abs="55.714374" PMx_abs="8.200721" NOx_abs="188.531723" fuel_abs="147070.911771" electricity_abs="0"/>
    </tripinfo>
    <tripinfo id="f_0_3.5" depart="95.00" departLane="C0C1_0" departPos="5.10" departSpeed="0.00" departDelay="6.00" arrival="236.00" arrivalLane="C2C3_0" arrivalPos="492.80" arrivalSpeed="11.70" duration="141.00" routeLength="1495.00" waitingTime="3.00" waitingCount="1" stopTime="0.00" timeLoss="18.02" rerouteNo="0" devices="tripinfo_f_0_3.5 emissions_f_0_3.5" vType="DEFAULT_VEHTYPE" speedFactor="0.88" vaporized="">
        <emissions CO_abs="4468.470180" CO2_abs="335049.395957" HC_abs="27.836170" PMx_abs="4.626373" NOx_abs="127.289804" fuel_abs="106866.495101" electricity_abs="0"/>
    </tripinfo>
    <tripinfo id="f_0_1.10" depart="73.00" departLane="C4C3_0" departPos="5.10" departSpeed="0.00" departDelay="0.00" arrival="238.00" arrivalLane="C2C1_0" arrivalPos="492.80" arrivalSpeed="13.03" duration="165.00" routeLength="1495.00" waitingTime="20.00" waitingCount="1" stopTime="0.00" timeLoss="56.51" rerouteNo="0" devices="tripinfo_f_0_1.10 emissions_f_0_1.10" vType="DEFAULT_VEHTYPE" speedFactor="0.99" vaporized="">
        <emissions CO_abs="9566.273099" CO2_abs="464835.147006" HC_abs="54.276293" PMx_abs="8.255844" NOx_abs="190.091841" fuel_abs="148262.539981" electricity_abs="0"/>
    </tripinfo>
    <tripinfo id="f_0_3.6" depart="98.00" departLane="C0C1_0" departPos="5.10" departSpeed="0.00" departDelay="3.00" arrival="238.00" arrivalLane="C2C3_0" arrivalPos="492.80" arrivalSpeed="13.63" duration="140.00" routeLength="1495.00" waitingTime="2.00" waitingCount="1" stopTime="0.00" timeLoss="33.49" rerouteNo="0" devices="tripinfo_f_0_3.6 emissions_f_0_3.6" vType="DEFAULT_VEHTYPE" speedFactor="1.02" vaporized="">
        <emissions CO_abs="5291.623750" CO2_abs="375775.866781" HC_abs="32.610799" PMx_abs="5.772188" NOx_abs="146.804517" fuel_abs="119856.004175" electricity_abs="0"/>
    </tripinfo>
    <tripinfo id="f_0_1.11" depart="77.00" departLane="C4C3_0" departPos="5.10" departSpeed="0.00" departDelay="0.00" arrival="240.00" arrivalLane="C2C1_0" arrivalPos="492.80" arrivalSpeed="12.91" duration="163.00" routeLength="1495.00" waitingTime="18.00" waitingCount="1" stopTime="0.00" timeLoss="56.97" rerouteNo="0" devices="tripinfo_f_0_1.11 emissions_f_0_1.11" vType="DEFAULT_VEHTYPE" speedFactor="1.02" vaporized="">
        <emissions CO_abs="9462.905216" CO2_abs="472222.040076" HC_abs="53.938115" PMx_abs="8.429201" NOx_abs="193.105586" fuel_abs="150618.453603" electricity_abs="0"/>
    </tripinfo>
    <tripinfo id="f_0_1.12" depart="80.00" departLane="C4C3_0" departPos="5.10" departSpeed="0.00" departDelay="0.00" arrival="241.00" arrivalLane="C2C1_0" arrivalPos="492.80" arrivalSpeed="15.92" duration="161.00" routeLength="1495.00" waitingTime="18.00" waitingCount="1" stopTime="0.00" timeLoss="69.71" rerouteNo="0" devices="tripinfo_f_0_1.12 emissions_f_0_1.12" vType="DEFAULT_VEHTYPE" speedFactor="1.18" vaporized="">