<?xml version="1.0" encoding="UTF-8"?>

<!-- generated on 2024-08-22 12:40:23 by Eclipse SUMO sumo Version 1.17.0
<configuration xmlns:xsi="http://www.w3.org/2001/XMLSchema-instance" xsi:noNamespaceSchemaLocation="http://sumo.dlr.de/xsd/sumoConfiguration.xsd">

    <input>
        <net-file value="single_static.net.xml"/>
        <route-files value="single_5.rou.xml"/>
    </input>

    <output>
        <tripinfo-output value="emissions_test\z_static_5_emissions_tripinfo_single.xml"/>
    </output>

    <processing>
        <time-to-teleport value="-1"/>
    </processing>

    <emissions>
        <device.emissions.probability value="1.0"/>
    </emissions>

    <traci_server>
        <remote-port value="57280"/>
    </traci_server>

</configuration>
-->

<tripinfos xmlns:xsi="http://www.w3.org/2001/XMLSchema-instance" xsi:noNamespaceSchemaLocation="http://sumo.dlr.de/xsd/tripinfo_file.xsd">
    <tripinfo id="f_0_0.0" depart="2.00" departLane="A2B2_0" departPos="5.10" departSpeed="0.00" departDelay="0.00" arrival="111.00" arrivalLane="C2D2_0" arrivalPos="492.80" arrivalSpeed="14.64" duration="109.00" routeLength="1495.00" waitingTime="0.00" waitingCount="0" stopTime="0.00" timeLoss="7.00" rerouteNo="0" devices="tripinfo_f_0_0.0 emissions_f_0_0.0" vType="DEFAULT_VEHTYPE" speedFactor="1.06" vaporized="">
        <emissions CO_abs="2261.543108" CO2_abs="288114.919087" HC_abs="16.069923" PMx_abs="3.816720" NOx_abs="104.987023" fuel_abs="91895.657926" electricity_abs="0"/>
    </tripinfo>
    <tripinfo id="f_0_0.1" depart="5.00" departLane="A2B2_0" departPos="5.10" departSpeed="0.00" departDelay="0.00" arrival="178.00" arrivalLane="C2D2_0" arrivalPos="492.80" arrivalSpeed="12.80" duration="173.00" routeLength="1495.00" waitingTime="44.00" waitingCount="1" stopTime="0.00" timeLoss="57.70" rerouteNo="0" devices="tripinfo_f_0_0.1 emissions_f_0_0.1" vType="DEFAULT_VEHTYPE" speedFactor="0.94" vaporized="">
        <emissions CO_abs="10641.800117" CO2_abs="432586.772738" HC_abs="58.025748" PMx_abs="7.127354" NOx_abs="171.442166" fuel_abs="137978.545052" electricity_abs="0"/>
    </tripinfo>
    <tripinfo id="f_0_0.2" depart="10.00" departLane="A2B2_0" departPos="5.10" departSpeed="0.00" departDelay="0.00" arrival="180.00" arrivalLane="C2D2_0" arrivalPos="492.80" arrivalSpeed="13.73" duration="170.00" routeLength="1495.00" waitingTime="44.00" waitingCount="1" stopTime="0.00" timeLoss="62.58" rerouteNo="0" devices="tripinfo_f_0_0.2 emissions_f_0_0.2" vType="DEFAULT_VEHTYPE" speedFactor="1.01" vaporized="">
        <emissions CO_abs="11010.775130" CO2_abs="459859.846962" HC_abs="60.486490" PMx_abs="7.900710" NOx_abs="184.294761" fuel_abs="146677.041942" electricity_abs="0"/>
    </tripinfo>
    <tripinfo id="f_0_0.3" depart="16.00" departLane="A2B2_0" departPos="5.10" departSpeed="0.00" departDelay="0.00" arrival="181.00" arrivalLane="C2D2_0" arrivalPos="492.80" arrivalSpeed="13.88" duration="165.00" routeLength="1495.00" waitingTime="43.00" waitingCount="1" stopTime="0.00" timeLoss="65.34" rerouteNo="0" devices="tripinfo_f_0_0.3 emissions_f_0_0.3" vType="DEFAULT_VEHTYPE" speedFactor="1.08" vaporized="">
        <emissions CO_abs="11090.102648" CO2_abs="457041.834069" HC_abs="60.622660" PMx_abs="8.216880" NOx_abs="184.972049" fuel_abs="145777.880835" electricity_abs="0"/>
    </tripinfo>
    <tripinfo id="f_0_0.4" depart="20.00" departLane="A2B2_0" departPos="5.10" departSpeed="0.00" departDelay="0.00" arrival="183.00" arrivalLane="C2D2_0" arrivalPos="492.80" arrivalSpeed="13.35" duration="163.00" routeLength="1495.00" waitingTime="41.00" waitingCount="1" stopTime="0.00" timeLoss="58.03" rerouteNo="0" devices="tripinfo_f_0_0.4 emissions_f_0_0.4" vType="DEFAULT_VEHTYPE" speedFactor="1.03" vaporized="">
        <emissions CO_abs="10531.563338" CO2_abs="448087.820584" HC_abs="57.628105" PMx_abs="7.587356" NOx_abs="177.647262" fuel_abs="142922.241854" electricity_abs="0"/>
    </tripinfo>
    <tripinfo id="f_0_2.0" depart="80.00" departLane="E2D2_0" departPos="5.10" departSpeed="0.00" departDelay="0.00" arrival="184.00" arrivalLane="C2B2_0" arrivalPos="492.80" arrivalSpeed="14.55" duration="104.00" routeLength="1495.00" waitingTime="0.00" waitingCount="0" stopTime="0.00" timeLoss="7.49" rerouteNo="0" devices="tripinfo_f_0_2.0 emissions_f_0_2.0" vType="DEFAULT_VEHTYPE" speedFactor="1.12" vaporized="">
        <emissions CO_abs="2346.026445" CO2_abs="281033.421117" HC_abs="16.263692" PMx_abs="3.931747" NOx_abs="103.371530" fuel_abs="89636.811252" electricity_abs="0"/>
    </tripinfo>
    <tripinfo id="f_0_2.1" depart="83.00" departLane="E2D2_0" departPos="5.10" departSpeed="0.00" departDelay="1.00" arrival="208.00" arrivalLane="C2B2_0" arrivalPos="492.80" arrivalSpeed="13.48" duration="125.00" routeLength="1495.00" waitingTime="3.00" waitingCount="1" stopTime="0.00" timeLoss="16.33" rerouteNo="0" devices="tripinfo_f_0_2.1 emissions_f_0_2.1" vType="DEFAULT_VEHTYPE" speedFactor="0.99" vaporized="">
        <emissions CO_abs="3836.125639" CO2_abs="322559.320912" HC_abs="24.344069" PMx_abs="4.563170" NOx_abs="121.485512" fuel_abs="102882.326032" electricity_abs="0"/>
    </tripinfo>
    <tripinfo id="f_0_2.2" depart="86.00" departLane="E2D2_0" departPos="5.10" departSpeed="0.00" departDelay="3.00" arrival="216.00" arrivalLane="C2B2_0" arrivalPos="492.80" arrivalSpeed="12.86" duration="130.00" routeLength="1495.00" waitingTime="0.00" waitingCount="0" stopTime="0.00" timeLoss="13.28" rerouteNo="0" devices="tripinfo_f_0_2.2 emissions_f_0_2.2" vType="DEFAULT_VEHTYPE" speedFactor="0.93" vaporized="">
        <emissions CO_abs="3449.613000" CO2_abs="321265.601159" HC_abs="22.680772" PMx_abs="4.336578" NOx_abs="120.391326" fuel_abs="102469.678021" electricity_abs="0"/>
    </tripinfo>
    <tripinfo id="f_0_1.0" depart="40.00" departLane="C4C3_0" departPos="5.10" departSpeed="0.00" departDelay="0.00" arrival="229.00" arrivalLane="C2C1_0" arrivalPos="492.80" arrivalSpeed="10.39" duration="189.00" routeLength="1495.00" waitingTime="45.00" waitingCount="1" stopTime="0.00" timeLoss="58.71" rerouteNo="0" devices="tripinfo_f_0_1.0 emissions_f_0_1.0" vType="DEFAULT_VEHTYPE" speedFactor="0.83" vaporized="">
        <emissions CO_abs="11276.343369" CO2_abs="442892.969867" HC_abs="61.395297" PMx_abs="6.992000" NOx_abs="174.828274" fuel_abs="141266.374812" electricity_abs="0"/>
    </tripinfo>
    <tripinfo id="f_0_1.1" depart="43.00" departLane="C4C3_0" departPos="5.10" departSpeed="0.00" departDelay="0.00" arrival="230.00" arrivalLane="C2C1_0" arrivalPos="492.80" arrivalSpeed="11.44" duration="187.00" routeLength="1495.00" waitingTime="43.00" waitingCount="1" stopTime="0.00" timeLoss="84.09" rerouteNo="0" devices="tripinfo_f_0_1.1 emissions_f_0_1.1" vType="DEFAULT_VEHTYPE" speedFactor="1.05" vaporized="">
        <emissions CO_abs="12014.782619" CO2_abs="472082.032634" HC_abs="65.596793" PMx_abs="8.351110" NOx_abs="192.853936" fuel_abs="150575.509163" electricity_abs="0"/>
    </tripinfo>
    <tripinfo id="f_0_1.2" depart="46.00" departLane="C4C3_0" departPos="5.10" departSpeed="0.00" departDelay="1.00" arrival="232.00" arrivalLane="C2C1_0" arrivalPos="492.80" arrivalSpeed="11.96" duration="186.00" routeLength="1495.00" waitingTime="43.00" waitingCount="1" stopTime="0.00" timeLoss="64.39" rerouteNo="0" devices="tripinfo_f_0_1.2 emissions_f_0_1.2" vType="DEFAULT_VEHTYPE" speedFactor="0.89" vaporized="">
        <emissions CO_abs="12091.734100" CO2_abs="477362.993026" HC_abs="66.027254" PMx_abs="8.340065" NOx_abs="194.168218" fuel_abs="152260.021892" electricity_abs="0"/>
    </tripinfo>
    <tripinfo id="f_0_1.3" depart="49.00" departLane="C4C3_0" departPos="5.10" departSpeed="0.00" departDelay="1.00" arrival="234.00" arrivalLane="C2C1_0" arrivalPos="492.80" arrivalSpeed="12.65" duration="185.00" routeLength="1495.00" waitingTime="41.00" waitingCount="1" stopTime="0.00" timeLoss="69.81" rerouteNo="0" devices="tripinfo_f_0_1.3 emissions_f_0_1.3" vType="DEFAULT_VEHTYPE" speedFactor="0.94" vaporized="">
        <emissions CO_abs="13092.989233" CO2_abs="520988.083983" HC_abs="71.719703" PMx_abs="9.866622" NOx_abs="217.376844" fuel_abs="166173.729462" electricity_abs="0"/>
    </tripinfo>
    <tripinfo id="f_0_1.4" depart="52.00" departLane="C4C3_0" departPos="5.10" departSpeed="0.00" departDelay="3.00" arrival="236.00" arrivalLane="C2C1_0" arrivalPos="492.80" arrivalSpeed="11.77" duration="184.00" routeLength="1495.00" waitingTime="41.00" waitingCount="1" stopTime="0.00" timeLoss="58.02" rerouteNo="0" devices="tripinfo_f_0_1.4 emissions_f_0_1.4" vType="DEFAULT_VEHTYPE" speedFactor="0.86" vaporized="">
        <emissions CO_abs="11314.749920" CO2_abs="451470.674510" HC_abs="61.869550" PMx_abs="7.555020" NOx_abs="181.258849" fuel_abs="144001.711383" electricity_abs="0"/>
    </tripinfo>
    <tripinfo id="f_0_1.5" depart="55.00" departLane="C4C3_0" departPos="5.10" departSpeed="0.00" departDelay="1.00" arrival="238.00" arrivalLane="C2C1_0" arrivalPos="492.80" arrivalSpeed="14.86" duration="183.00" routeLength="1495.00" waitingTime="39.00" waitingCount="1" stopTime="0.00" timeLoss="83.65" rerouteNo="0" devices="tripinfo_f_0_1.5 emissions_f_0_1.5" vType="DEFAULT_VEHTYPE" speedFactor="1.09" vaporized="">
        <emissions CO_abs="12400.534860" CO2_abs="492765.075989" HC_abs="67.944663" PMx_abs="9.089356" NOx_abs="203.903503" fuel_abs="157172.056229" electricity_abs="0"/>
    </tripinfo>
    <tripinfo id="f_0_1.6" depart="58.00" departLane="C4C3_0" departPos="5.10" departSpeed="0.00" departDelay="0.00" arrival="240.00" arrivalLane="C2C1_0" arrivalPos="492.80" arrivalSpeed="13.05" duration="182.00" routeLength="1495.00" waitingTime="43.00" waitingCount="2" stopTime="0.00" timeLoss="76.39" rerouteNo="0" devices="tripinfo_f_0_1.6 emissions_f_0_1.6" vType="DEFAULT_VEHTYPE" speedFactor="1.03" vaporized="">
        <emissions CO_abs="13250.404197" CO2_abs="521666.190490" HC_abs="72.247986" PMx_abs="9.720210" NOx_abs="215.817938" fuel_abs="166390.313234" electricity_abs="0"/>
    </tripinfo>
    <tripinfo id="f_0_1.7" depart="68.00" departLane="C4C3_0" departPos="5.10" departSpeed="0.00" departDelay="0.00" arrival="241.00" arrivalLane="C2C1_0" arrivalPos="492.80" arrivalSpeed="13.32" duration="173.00" routeLength="1495.00" waitingTime="39.00" waitingCount="2" stopTime="0.00" timeLoss="70.15" rerouteNo="0" devices="tripinfo_f_0_1.7 emissions_f_0_1.7" vType="DEFAULT_VEHTYPE" speedFactor="1.05" vaporized="">
        <emissions CO_abs="11893.917415" CO2_abs="496933.218087" HC_abs="65.526048" PMx_abs="8.982475" NOx_abs="203.095532" fuel_abs="158501.392601" electricity_abs="0"/>
    </tripinfo>
    <tripinfo id="f_0_3.0" depart="122.00" departLane="C0C1_0" departPos="5.10" departSpeed="0.00" departDelay="0.00" arrival="252.00" arrivalLane="C2C3_0" arrivalPos="492.80" arrivalSpeed="11.95" duration="130.00" routeLength="1495.00" waitingTime="0.00" waitingCount="0" stopTime="0.00" timeLoss="8.46" rerouteNo="0" devices="tripinfo_f_0_3.0 emissions_f_0_3.0" vType="DEFAULT_VEHTYPE" speedFactor="0.89" vaporized="">
        <emissions CO_abs="2723.884937" CO2_abs="291817.815900" HC_abs="18.748914" PMx_abs="3.521760" NOx_abs="106.598699" fuel_abs="93077.361934" electricity_abs="0"/>
    </tripinfo>
    <tripinfo id="f_0_3.1" depart="125.00" departLane="C0C1_0" departPos="5.10" departSpeed="0.00" departDelay="1.00" arrival="266.00" arrivalLane="C2C3_0" arrivalPos="492.80" arrivalSpeed="10.76" duration="141.00" routeLength="1495.00" waitingTime="0.00" waitingCount="0" stopTime="0.00" timeLoss="10.01" rerouteNo="0" devices="tripinfo_f_0_3.1 emissions_f_0_3.1" vType="DEFAULT_VEHTYPE" speedFactor="0.83" vaporized="">
        <emissions CO_abs="3321.978163" CO2_abs="313675.250452" HC_abs="22.168797" PMx_abs="3.638216" NOx_abs="114.741122" fuel_abs="100049.311112" electricity_abs="0"/>
    </tripinfo>
    <tripinfo id="f_0_2.3" depart="89.00" departLane="E2D2_0" departPos="5.10" departSpeed="0.00" departDelay="2.00" arrival="272.00" arrivalLane="C2B2_0" arrivalPos="492.80" arrivalSpeed="11.87" duration="183.00" routeLength="1495.00" waitingTime="43.00" waitingCount="1" stopTime="0.00" timeLoss="59.57" rerouteNo="0" devices="tripinfo_f_0_2.3 emissions_f_0_2.3" vType="DEFAULT_VEHTYPE" speedFactor="0.88" vaporized="">
        <emissions CO_abs="11038.565520" CO2_abs="454855.339078" HC_abs="60.517032" PMx_abs="7.211665" NOx_abs="179.216928" fuel_abs="145081.568096" electricity_abs="0"/>
    </tripinfo>
    <tripinfo id="f_0_2.4" depart="92.00" departLane="E2D2_0" departPos="5.10" departSpeed="0.00" departDelay="4.00" arrival="273.00" arrivalLane="C2B2_0" arrivalPos="492.80" arrivalSpeed="12.59" duration="181.00" routeLength="1495.00" waitingTime="43.00" waitingCount="1" stopTime="0.00" timeLoss="66.41" rerouteNo="0" devices="tripinfo_f_0_2.4 emissions_f_0_2.4" vType="DEFAULT_VEHTYPE" speedFactor="0.94" vaporized="">
        <emissions CO_abs="11843.045436" CO2_abs="473904.142536" HC_abs="64.799957" PMx_abs="8.312029" NOx_abs="192.623228" fuel_abs="151156.663187" electricity_abs="0"/>
    </tripinfo>
    <tripinfo id="f_0_2.5" depart="95.00" departLane="E2D2_0" departPos="5.10" departSpeed="0.00" departDelay="3.00" arrival="275.00" arrivalLane="C2B2_0" arrivalPos="492.80" arrivalSpeed="11.88" duration="180.00" routeLength="1495.00" waitingTime="41.00" waitingCount="1" stopTime="0.00" timeLoss="64.55" rerouteNo="0" devices="tripinfo_f_0_2.5 emissions_f_0_2.5" vType="DEFAULT_VEHTYPE" speedFactor="0.94" vaporized="">
        <emissions CO_abs="11646.472442" CO2_abs="463506.559549" HC_abs="63.613758" PMx_abs="8.234408" NOx_abs="188.920656" fuel_abs="147840.172961" electricity_abs="0"/>
    </tripinfo>
    <tripinfo id="f_0_2.6" depart="98.00" departLane="E2D2_0" departPos="5.10" departSpeed="0.00" departDelay="4.00" arrival="276.00" arrivalLane="C2B2_0" arrivalPos="492.80" arrivalSpeed="15.31" duration="178.00" routeLength="1495.00" waitingTime="40.00" waitingCount="1" stopTime="0.00" timeLoss="85.07" rerouteNo="0" devices="tripinfo_f_0_2.6 emissions_f_0_2.6" vType="DEFAULT_VEHTYPE" speedFactor="1.16" vaporized="">
        <emissions CO_abs="12564.225880" CO2_abs="507671.638142" HC_abs="68.805062" PMx_abs="9.321699" NOx_abs="209.043888" fuel_abs="161926.589221" electricity_abs="0"/>
    </tripinfo>
    <tripinfo id="f_0_2.7" depart="101.00" departLane="E2D2_0" departPos="5.10" departSpeed="0.00" departDelay="6.00" arrival="278.00" arrivalLane="C2B2_0" arrivalPos="492.80" arrivalSpeed="13.57" duration="177.00" routeLength="1495.00" waitingTime="40.00" waitingCount="1" stopTime="0.00" timeLoss="71.02" rerouteNo="0" devices="tripinfo_f_0_2.7 emissions_f_0_2.7" vType="DEFAULT_VEHTYPE" speedFactor="1.02" vaporized="">
        <emissions CO_abs="12230.203124" CO2_abs="502302.647332" HC_abs="67.015889" PMx_abs="9.080948" NOx_abs="205.437675" fuel_abs="160214.124786" electricity_abs="0"/>
    </tripinfo>
    <tripinfo id="f_0_2.8" depart="104.00" departLane="E2D2_0" departPos="5.10" departSpeed="0.00" departDelay="8.00" arrival="280.00" arrivalLane="C2B2_0" arrivalPos="492.80" arrivalSpeed="13.87" duration="176.00" routeLength="1495.00" waitingTime="39.00" waitingCount="1" stopTime="0.00" timeLoss="68.85" rerouteNo="0" devices="tripinfo_f_0_2.8 emissions_f_0_2.8" vType="DEFAULT_VEHTYPE" speedFactor="1.01" vaporized="">
        <emissions CO_abs="12059.081873" CO2_abs="496982.151577" HC_abs="66.225332" PMx_abs="9.031509" NOx_abs="203.600762" fuel_abs="158517.041610" electricity_abs="0"/>
    </tripinfo>
    <tripinfo id="f_0_2.9" depart="107.00" departLane="E2D2_0" departPos="5.10" departSpeed="0.00" departDelay="10.00" arrival="282.00" arrivalLane="C2B2_0" arrivalPos="492.80" arrivalSpeed="12.63" duration="175.00" routeLength="1495.00" waitingTime="39.00" waitingCount="1" stopTime="0.00" timeLoss="64.00" rerouteNo="0" devices="tripinfo_f_0_2.9 emissions_f_0_2.9" vType="DEFAULT_VEHTYPE" speedFactor="0.97" vaporized="">
        <emissions CO_abs="11415.486296" CO2_abs="474148.261924" HC_abs="62.431094" PMx_abs="8.308320" NOx_abs="191.779487" fuel_abs="151234.255310" electricity_abs="0"/>
    </tripinfo>
    <tripinfo id="f_1_1.0" depart="200.00" departLane="C4C3_0" departPos="5.10" departSpeed="0.00" departDelay="0.00" arrival="304.00" arrivalLane="C2C1_0" arrivalPos="492.80" arrivalSpeed="14.85" duration="104.00" routeLength="1495.00" waitingTime="0.00" waitingCount="0" stopTime="0.00" timeLoss="8.61" rerouteNo="0" devices="tripinfo_f_1_1.0 emissions_f_1_1.0" vType="DEFAULT_VEHTYPE" speedFactor="1.13" vaporized="">
        <emissions CO_abs="2540.903616" CO2_abs="304028.980789" HC_abs="17.526695" PMx_abs="4.200809" NOx_abs="111.460204" fuel_abs="96971.400930" electricity_abs="0"/>
    </tripinfo>
    <tripinfo id="f_1_1.1" depart="208.00" departLane="C4C3_0" departPos="5.10" departSpeed="0.00" departDelay="0.00" arrival="309.00" arrivalLane="C2C1_0" arrivalPos="492.80" arrivalSpeed="15.90" duration="101.00" routeLength="1495.00" waitingTime="0.00" waitingCount="0" stopTime="0.00" timeLoss="7.47" rerouteNo="0" devices="tripinfo_f_1_1.1 emissions_f_1_1.1" vType="DEFAULT_VEHTYPE" speedFactor="1.15" vaporized="">
        <emissions CO_abs="2438.412010" CO2_abs="304193.170452" HC_abs="17.239472" PMx_abs="4.286790" NOx_abs="111.504983" fuel_abs="97023.664437" electricity_abs="0"/>
    </tripinfo>
    <tripinfo id="f_0_3.2" depart="139.00" departLane="C0C1_0" departPos="5.10" departSpeed="0.00" departDelay="0.00" arrival="316.00" arrivalLane="C2C3_0" arrivalPos="492.80" arrivalSpeed="10.88" duration="177.00" routeLength="1495.00" waitingTime="40.00" waitingCount="1" stopTime="0.00" timeLoss="53.21" rerouteNo="0" devices="tripinfo_f_0_3.2 emissions_f_0_3.2" vType="DEFAULT_VEHTYPE" speedFactor="0.87" vaporized="">
        <emissions CO_abs="10229.260912" CO2_abs="411203.902393" HC_abs="55.807874" PMx_abs="6.734821" NOx_abs="163.519184" fuel_abs="131158.324767" electricity_abs="0"/>
    </tripinfo>
    <tripinfo id="f_0_3.3" depart="145.00" departLane="C0C1_0" departPos="5.10" departSpeed="0.00" departDelay="0.00" arrival="318.00" arrivalLane="C2C3_0" arrivalPos="492.80" arrivalSpeed="12.39" duration="173.00" routeLength="1495.00" waitingTime="39.00" waitingCount="1" stopTime="0.00" timeLoss="54.88" rerouteNo="0" devices="tripinfo_f_0_3.3 emissions_f_0_3.3" vType="DEFAULT_VEHTYPE" speedFactor="0.92" vaporized="">
        <emissions CO_abs="10300.218852" CO2_abs="432558.529986" HC_abs="56.653523" PMx_abs="7.306056" NOx_abs="173.242447" fuel_abs="137969.095807" electricity_abs="0"/>
    </tripinfo>
    <tripinfo id="f_0_3.4" depart="148.00" departLane="C0C1_0" departPos="5.10" departSpeed="0.00" departDelay="1.00" arrival="319.00" arrivalLane="C2C3_0" arrivalPos="492.80" arrivalSpeed="12.18" duration="171.00" routeLength="1495.00" waitingTime="38.00" waitingCount="1" stopTime="0.00" timeLoss="57.51" rerouteNo="0" devices="tripinfo_f_0_3.4 emissions_f_0_3.4" vType="DEFAULT_VEHTYPE" speedFactor="0.95" vaporized="">
        <emissions CO_abs="10569.179152" CO2_abs="447549.537971" HC_abs="58.165729" PMx_abs="7.693088" NOx_abs="180.063969" fuel_abs="142750.415823" electricity_abs="0"/>
    </tripinfo>
    <tripinfo id="f_1_3.0" depart="205.00" departLane="C0C1_0" departPos="5.10" departSpeed="0.00" departDelay="0.00" arrival="321.00" arrivalLane="C2C3_0" arrivalPos="492.80" arrivalSpeed="15.83" duration="116.00" routeLength="1495.00" waitingTime="0.00" waitingCount="0" stopTime="0.00" timeLoss="24.02" rerouteNo="0" devices="tripinfo_f_1_3.0 emissions_f_1_3.0" vType="DEFAULT_VEHTYPE" speedFactor="1.18" vaporized="">
        <emissions CO_abs="3880.470935" CO2_abs="351724.291285" HC_abs="25.453720" PMx_abs="5.492255" NOx_abs="135.537843" fuel_abs="112183.909402" electricity_abs="0"/>
    </tripinfo>
    <tripinfo id="f_1_1.2" depart="222.00" departLane="C4C3_0" departPos="5.10" departSpeed="0.00" departDelay="0.00" arrival="321.00" arrivalLane="C2C1_0" arrivalPos="492.80" arrivalSpeed="15.63" duration="99.00" routeLength="1495.00" waitingTime="0.00" waitingCount="0" stopTime="0.00" timeLoss="7.64" rerouteNo="0" devices="tripinfo_f_1_1.2 emissions_f_1_1.2" vType="DEFAULT_VEHTYPE" speedFactor="1.18" vaporized="">
        <emissions CO_abs="2187.390022" CO2_abs="288812.685199" HC_abs="15.666014" PMx_abs="3.981205" NOx_abs="105.124552" fuel_abs="92118.022842" electricity_abs="0"/>
    </tripinfo>
    <tripinfo id="f_1_3.1" depart="214.00" departLane="C0C1_0" departPos="5.10" departSpeed="0.00" departDelay="0.00" arrival="322.00" arrivalLane="C2C3_0" arrivalPos="492.80" arrivalSpeed="16.12" duration="108.00" routeLength="1495.00" waitingTime="0.00" waitingCount="0" stopTime="0.00" timeLoss="16.09" rerouteNo="0" devices="tripinfo_f_1_3.1 emissions_f_1_3.1" vType="DEFAULT_VEHTYPE" speedFactor="1.17" vaporized="">
        <emissions CO_abs="3179.781852" CO2_abs="322570.025138" HC_abs="21.383836" PMx_abs="4.901783" NOx_abs="122.629726" fuel_abs="102884.933094" electricity_abs="0"/>
    </tripinfo>
    <tripinfo id="f_1_3.2" depart="217.00" departLane="C0C1_0" departPos="5.10" departSpeed="0.00" departDelay="2.00" arrival="334.00" arrivalLane="C2C3_0" arrivalPos="492.80" arrivalSpeed="12.67" duration="117.00" routeLength="1495.00" waitingTime="0.00" waitingCount="0" stopTime="0.00" timeLoss="8.58" rerouteNo="0" devices="tripinfo_f_1_3.2 emissions_f_1_3.2" vType="DEFAULT_VEHTYPE" speedFactor="0.99" vaporized="">
        <emissions CO_abs="2164.340806" CO2_abs="283682.605160" HC_abs="15.646846" PMx_abs="3.406056" NOx_abs="101.867969" fuel_abs="90482.327138" electricity_abs="0"/>
    </tripinfo>
    <tripinfo id="f_1_3.3" depart="220.00" departLane="C0C1_0" departPos="5.10" departSpeed="0.00" departDelay="0.00" arrival="336.00" arrivalLane="C2C3_0" arrivalPos="492.80" arrivalSpeed="13.54" duration="116.00" routeLength="1495.00" waitingTime="0.00" waitingCount="0" stopTime="0.00" timeLoss="9.91" rerouteNo="0" devices="tripinfo_f_1_3.3 emissions_f_1_3.3" vType="DEFAULT_VEHTYPE" speedFactor="1.02" vaporized="">
        <emissions CO_abs="2599.881110" CO2_abs="292079.452679" HC_abs="17.926432" PMx_abs="3.966377" NOx_abs="108.476163" fuel_abs="93160.224294" electricity_abs="0"/>
    </tripinfo>
    <tripinfo id="f_1_1.3" depart="225.00" departLane="C4C3_0" departPos="5.10" departSpeed="0.00" departDelay="0.00" arrival="339.00" arrivalLane="C2C1_0" arrivalPos="492.80" arrivalSpeed="13.96" duration="114.00" routeLength="1495.00" waitingTime="0.00" waitingCount="0" stopTime="0.00" timeLoss="9.32" rerouteNo="0" devices="tripinfo_f_1_1.3 emissions_f_1_1.3" vType="DEFAULT_VEHTYPE" speedFactor="1.03" vaporized="">
        <emissions CO_abs="2363.886757" CO2_abs="293665.250620" HC_abs="16.363143" PMx_abs="3.590172" NOx_abs="105.181249" fuel_abs="93666.305964" electricity_abs="0"/>
    </tripinfo>
    <tripinfo id="f_1_3.4" depart="223.00" departLane="C0C1_0" departPos="5.10" departSpeed="0.00" departDelay="2.00" arrival="343.00" arrivalLane="C2C3_0" arrivalPos="492.80" arrivalSpeed="13.01" duration="120.00" routeLength="1495.00" waitingTime="0.00" waitingCount="0" stopTime="0.00" timeLoss="8.88" rerouteNo="0" devices="tripinfo_f_1_3.4 emissions_f_1_3.4" vType="DEFAULT_VEHTYPE" speedFactor="0.97" vaporized="">
        <emissions CO_abs="2655.025377" CO2_abs="294327.401074" HC_abs="18.407839" PMx_abs="3.911778" NOx_abs="109.275358" fuel_abs="93877.340179" electricity_abs="0"/>
    </tripinfo>
    <tripinfo id="f_1_1.4" depart="231.00" departLane="C4C3_0" departPos="5.10" departSpeed="0.00" departDelay="0.00" arrival="343.00" arrivalLane="C2C1_0" arrivalPos="492.80" arrivalSpeed="13.69" duration="112.00" routeLength="1495.00" waitingTime="0.00" waitingCount="0" stopTime="0.00" timeLoss="8.31" rerouteNo="0" devices="tripinfo_f_1_1.4 emissions_f_1_1.4" vType="DEFAULT_VEHTYPE" speedFactor="1.04" vaporized="">
        <emissions CO_abs="2425.605572" CO2_abs="285334.961179" HC_abs="17.065967" PMx_abs="3.866490" NOx_abs="105.303987" fuel_abs="91009.004565" electricity_abs="0"/>
    </tripinfo>
    <tripinfo id="f_1_3.5" depart="226.00" departLane="C0C1_0" departPos="5.10" departSpeed="0.00" departDelay="4.00" arrival="345.00" arrivalLane="C2C3_0" arrivalPos="492.80" arrivalSpeed="14.18" duration="119.00" routeLength="1495.00" waitingTime="0.00" waitingCount="0" stopTime="0.00" timeLoss="20.53" rerouteNo="0" devices="tripinfo_f_1_3.5 emissions_f_1_3.5" vType="DEFAULT_VEHTYPE" speedFactor="1.10" vaporized="">
        <emissions CO_abs="3575.691702" CO2_abs="327416.071897" HC_abs="23.568175" PMx_abs="5.125094" NOx_abs="127.409902" fuel_abs="104430.617001" electricity_abs="0"/>
    </tripinfo>
    <tripinfo id="f_1_0.0" depart="209.00" departLane="A2B2_0" departPos="5.10" departSpeed="0.00" departDelay="0.00" arrival="356.00" arrivalLane="C2D2_0" arrivalPos="492.80" arrivalSpeed="13.79" duration="147.00" routeLength="1495.00" waitingTime="25.00" waitingCount="1" stopTime="0.00" timeLoss="39.08" rerouteNo="0" devices="tripinfo_f_1_0.0 emissions_f_1_0.0" vType="DEFAULT_VEHTYPE" speedFactor="1.01" vaporized="">
        <emissions CO_abs="7583.599204" CO2_abs="394843.993518" HC_abs="43.072489" PMx_abs="6.247000" NOx_abs="153.381522" fuel_abs="125939.030168" electricity_abs="0"/>
    </tripinfo>
    <tripinfo id="f_1_2.0" depart="201.00" departLane="E2D2_0" departPos="5.10" departSpeed="0.00" departDelay="0.00" arrival="359.00" arrivalLane="C2B2_0" arrivalPos="492.80" arrivalSpeed="12.65" duration="158.00" routeLength="1495.00" waitingTime="29.00" waitingCount="1" stopTime="0.00" timeLoss="41.75" rerouteNo="0" devices="tripinfo_f_1_2.0 emissions_f_1_2.0" vType="DEFAULT_VEHTYPE" speedFactor="0.93" vaporized="">
        <emissions CO_abs="8158.020327" CO2_abs="390633.367770" HC_abs="45.712384" PMx_abs="6.152057" NOx_abs="152.720616" fuel_abs="124596.427654" electricity_abs="0"/>
    </tripinfo>
    <tripinfo id="f_1_0.1" depart="230.00" departLane="A2B2_0" departPos="5.10" departSpeed="0.00" departDelay="0.00" arrival="360.00" arrivalLane="C2D2_0" arrivalPos="492.80" arrivalSpeed="13.00" duration="130.00" routeLength="1495.00" waitingTime="2.00" waitingCount="1" stopTime="0.00" timeLoss="16.93" rerouteNo="0" devices="tripinfo_f_1_0.1 emissions_f_1_0.1" vType="DEFAULT_VEHTYPE" speedFactor="0.96" vaporized="">
        <emissions CO_abs="3769.566000" CO2_abs="316111.409027" HC_abs="24.033799" PMx_abs="4.387578" NOx_abs="119.159530" fuel_abs="100825.811835" electricity_abs="0"/>
    </tripinfo>
    <tripinfo id="f_1_2.1" depart="232.00" departLane="E2D2_0" departPos="5.10" departSpeed="0.00" departDelay="0.00" arrival="360.00" arrivalLane="C2B2_0" arrivalPos="492.80" arrivalSpeed="13.92" duration="128.00" routeLength="1495.00" waitingTime="10.00" waitingCount="1" stopTime="0.00" timeLoss="29.04" rerouteNo="0" devices="tripinfo_f_1_2.1 emissions_f_1_2.1" vType="DEFAULT_VEHTYPE" speedFactor="1.09" vaporized="">
        <emissions CO_abs="5413.334404" CO2_abs="362169.972664" HC_abs="32.431464" PMx_abs="5.748786" NOx_abs="140.553467" fuel_abs="115516.338204" electricity_abs="0"/>
    </tripinfo>
    <tripinfo id="f_1_0.2" depart="233.00" departLane="A2B2_0" departPos="5.10" departSpeed="0.00" departDelay="2.00" arrival="361.00" arrivalLane="C2D2_0" arrivalPos="492.80" arrivalSpeed="14.20" duration="128.00" routeLength="1495.00" waitingTime="1.00" waitingCount="1" stopTime="0.00" timeLoss="24.20" rerouteNo="0" devices="tripinfo_f_1_0.2 emissions_f_1_0.2" vType="DEFAULT_VEHTYPE" speedFactor="1.04" vaporized="">
        <emissions CO_abs="4144.494416" CO2_abs="340733.962681" HC_abs="26.065180" PMx_abs="4.924159" NOx_abs="129.508551" fuel_abs="108679.131775" electricity_abs="0"/>
    </tripinfo>
    <tripinfo id="f_1_2.2" depart="238.00" departLane="E2D2_0" departPos="5.10" departSpeed="0.00" departDelay="0.00" arrival="370.00" arrivalLane="C2B2_0" arrivalPos="492.80" arrivalSpeed="11.70" duration="132.00" routeLength="1495.00" waitingTime="0.00" waitingCount="0" stopTime="0.00" timeLoss="9.11" rerouteNo="0" devices="tripinfo_f_1_2.2 emissions_f_1_2.2" vType="DEFAULT_VEHTYPE" speedFactor="0.88" vaporized="">
        <emissions CO_abs="3045.196127" CO2_abs="296960.055665" HC_abs="20.432535" PMx_abs="3.812754" NOx_abs="110.473373" fuel_abs="94717.399603" electricity_abs="0"/>
    </tripinfo>
    <tripinfo id="f_2_2.0" depart="251.00" departLane="E2D2_0" departPos="5.10" departSpeed="0.00" departDelay="0.00" arrival="372.00" arrivalLane="C2B2_0" arrivalPos="492.80" arrivalSpeed="13.99" duration="121.00" routeLength="1495.00" waitingTime="0.00" waitingCount="0" stopTime="0.00" timeLoss="22.27" rerouteNo="0" devices="tripinfo_f_2_2.0 emissions_f_2_2.0" vType="DEFAULT_VEHTYPE" speedFactor="1.10" vaporized="">
        <emissions CO_abs="3407.468556" CO2_abs="326057.870066" HC_abs="22.450823" PMx_abs="4.723620" NOx_abs="123.260684" fuel_abs="103997.753966" electricity_abs="0"/>
    </tripinfo>
    <tripinfo id="f_1_0.3" depart="240.00" departLane="A2B2_0" departPos="5.10" departSpeed="0.00" departDelay="0.00" arrival="377.00" arrivalLane="C2D2_0" arrivalPos="492.80" arrivalSpeed="10.67" duration="137.00" routeLength="1495.00" waitingTime="0.00" waitingCount="0" stopTime="0.00" timeLoss="9.96" rerouteNo="0" devices="tripinfo_f_1_0.3 emissions_f_1_0.3" vType="DEFAULT_VEHTYPE" speedFactor="0.85" vaporized="">
        <emissions CO_abs="3157.432353" CO2_abs="301400.577083" HC_abs="21.084413" PMx_abs="3.693496" NOx_abs="111.166085" fuel_abs="96133.988286" electricity_abs="0"/>
    </tripinfo>
    <tripinfo id="f_2_0.0" depart="250.00" departLane="A2B2_0" departPos="5.10" departSpeed="0.00" departDelay="0.00" arrival="379.00" arrivalLane="C2D2_0" arrivalPos="492.80" arrivalSpeed="15.76" duration="129.00" routeLength="1495.00" waitingTime="0.00" waitingCount="0" stopTime="0.00" timeLoss="36.01" rerouteNo="0" devices="tripinfo_f_2_0.0 emissions_f_2_0.0" vType="DEFAULT_VEHTYPE" speedFactor="1.17" vaporized="">